/*--------------------------------*- C++ -*----------------------------------*\
| =========                 |                                                 |
| \\      /  F ield         | OpenFOAM: The Open Source CFD Toolbox           |
|  \\    /   O peration     | Version:  5.x                                   |
|   \\  /    A nd           | Web:      www.OpenFOAM.org                      |
|    \\/     M anipulation  |                                                 |
\*---------------------------------------------------------------------------*/
FoamFile
{
    version     2.0;
    format      ascii;
    class       volScalarField;
    location    "0";
    object       AR;
}
// * * * * * * * * * * * * * * * * * * * * * * * * * * * * * * * * * * * * * //

dimensions      [0 0 0 0 0 0 0];

internalField   nonuniform List<scalar>
4830
(
-2.066758780755990e-16
-2.058662505810376e-16
-2.050585569710634e-16
-2.042527950717465e-16
-2.034489627091568e-16
-2.026470577093642e-16
-2.018470778984388e-16
-2.010490211024505e-16
-2.002528851474691e-16
-1.994586678595648e-16
-1.986663670648074e-16
-1.978759805892669e-16
-1.970875062590132e-16
-1.963009419001162e-16
-1.955162853386460e-16
-1.947335344006726e-16
-1.939526869122658e-16
-1.931737406994956e-16
-1.923966935884320e-16
-1.916215434051448e-16
-1.908482879757041e-16
-1.900769251261799e-16
-1.893074526826420e-16
-1.885398684711605e-16
-1.877741703178052e-16
-1.870103560486461e-16
-1.862484234897533e-16
-1.854883704671966e-16
-1.847301948070459e-16
-1.839738943353713e-16
-1.832194668782428e-16
-1.824669102617301e-16
-1.817162223119035e-16
-1.809674008548326e-16
-1.802204437165875e-16
-1.794753487232382e-16
-1.787321137008547e-16
-1.779907364755068e-16
-1.772512148732645e-16
-1.765135467201979e-16
-1.757777298423767e-16
-1.750437620658710e-16
-1.743116412167508e-16
-1.735813651210860e-16
-1.728529316049465e-16
-1.721263384944023e-16
-1.714015836155234e-16
-1.706786647943796e-16
-1.699575798570411e-16
-1.692383266295777e-16
-1.685209029380593e-16
-1.678053066085559e-16
-1.670915354671375e-16
-1.663795873398741e-16
-1.656694600528355e-16
-1.649611514320918e-16
-1.642546593037128e-16
-1.635499814937686e-16
-1.628471158283291e-16
-1.621460601334642e-16
-1.614468122352440e-16
-1.607493699597382e-16
-1.600537311330171e-16
-1.593598935811503e-16
-1.586678551302080e-16
-1.579776136062600e-16
-1.572891668353764e-16
-1.566025126436270e-16
-1.559176488570819e-16
-1.552345733018110e-16
-1.545532838038841e-16
-1.538737781893714e-16
-1.531960542843428e-16
-1.525201099148681e-16
-1.518459429070174e-16
-1.511735510868606e-16
-1.505029322804676e-16
-1.498340843139084e-16
-1.491670050132530e-16
-1.485016922045714e-16
-1.478381437139333e-16
-1.471763573674090e-16
-1.465163309910681e-16
-1.458580624109809e-16
-1.452015494532171e-16
-1.445467899438467e-16
-1.438937817089397e-16
-1.432425225745661e-16
-1.425930103667958e-16
-1.419452429116987e-16
-1.412992180353449e-16
-1.406549335638041e-16
-1.400123873231465e-16
-1.393715771394420e-16
-1.387325008387605e-16
-1.380951562471719e-16
-1.374595411907463e-16
-1.368256534955535e-16
-1.361934909876636e-16
-1.355630514931465e-16
-1.349343328380721e-16
-1.343073328485104e-16
-1.336820493505313e-16
-1.330584801702049e-16
-1.324366231336010e-16
-1.318164760667896e-16
-1.311980367958406e-16
-1.305813031468241e-16
-1.299662729458099e-16
-1.293529440188681e-16
-1.287413141920685e-16
-1.281313812914812e-16
-1.275231431431760e-16
-1.269165975732230e-16
-1.263117424076920e-16
-1.257085754726531e-16
-1.251070945941762e-16
-1.245072975983312e-16
-1.239091823111882e-16
-1.233127465588170e-16
-1.227179881672876e-16
-1.221249049626699e-16
-1.215334947710340e-16
-1.209437554184497e-16
-1.203556847309871e-16
-1.197692805347160e-16
-1.191845406557065e-16
-1.186014629200284e-16
-1.180200451537518e-16
-1.174402851829465e-16
-1.168621808336826e-16
-1.162857299320300e-16
-1.157109303040586e-16
-1.151377797758385e-16
-1.145662761734395e-16
-1.139964173229316e-16
-1.134282010503848e-16
-1.128616251818690e-16
-1.122966875434541e-16
-1.117333859612102e-16
-1.111717182612071e-16
-1.106116822695149e-16
-1.100532758122035e-16
-1.094964967153427e-16
-1.089413428050027e-16
-1.083878119072533e-16
-1.078359018481645e-16
-1.072856104538063e-16
-1.067369355502486e-16
-1.061898749635613e-16
-1.056444265198144e-16
-1.051005880450779e-16
-1.045583573654218e-16
-1.040177323069158e-16
-1.034787106956301e-16
-1.029412903576346e-16
-1.024054691189992e-16
-1.018712448057939e-16
-1.013386152440887e-16
-1.008075782599533e-16
-1.002781316794581e-16
-9.975027332867258e-17
-9.922400103366700e-17
-9.869931262051122e-17
-9.817620591527516e-17
-9.765467874402884e-17
-9.713472893284220e-17
-9.661635430778516e-17
-9.609955269492771e-17
-9.558432192033977e-17
-9.507065981009129e-17
-9.455856419025224e-17
-9.404803288689259e-17
-9.353906372608229e-17
-9.303165453389126e-17
-9.252580313638949e-17
-9.202150735964692e-17
-9.151876502973348e-17
-9.101757397271916e-17
-9.051793201467389e-17
-9.001983698166764e-17
-8.952328669977036e-17
-8.902827899505198e-17
-8.853481169358247e-17
-8.804288262143182e-17
-8.755248960466992e-17
-8.706363046936676e-17
-8.657630304159230e-17
-8.609050514741644e-17
-8.560623461290918e-17
-8.512348926414049e-17
-8.464226692718031e-17
-8.416256542809855e-17
-8.368438259296522e-17
-8.320771624785024e-17
-8.273256421882356e-17
-8.225892433195516e-17
-8.178679441331497e-17
-8.131617228897297e-17
-8.084705578499910e-17
-8.037944272746327e-17
-7.991333094243553e-17
-7.944871825598574e-17
-7.898560249418388e-17
-7.852398148309992e-17
-7.806385304880385e-17
-7.760521501736554e-17
-7.714806521485498e-17
-7.669240146734214e-17
-7.623822160089697e-17
-7.578552344158939e-17
-7.533430481548940e-17
-7.488456354866693e-17
-7.443629746719191e-17
-7.398950439713435e-17
-7.354418216456415e-17
-7.310032859555130e-17
-7.265794151616573e-17
-7.221701875247739e-17
-7.177755813055626e-17
-7.133955747647228e-17
-7.090301461629540e-17
-7.046792737609556e-17
-7.003429358194275e-17
-6.960211105990688e-17
-6.917137763605792e-17
-6.874209113646587e-17
-6.831424938720062e-17
-6.788785021433212e-17
-6.746289144393039e-17
-6.703937090206532e-17
-6.661728641480689e-17
-6.619663580822505e-17
-6.577741690838976e-17
-6.535962754137094e-17
-6.494326553323861e-17
-6.452832871006264e-17
-6.411481489791306e-17
-6.370272192285978e-17
-6.329204761097275e-17
-6.288278978832196e-17
-6.247494628097733e-17
-6.206851491500880e-17
-6.166349351648636e-17
-6.125987991147998e-17
-6.085767192605956e-17
-6.045686738629507e-17
-6.005746411825646e-17
-5.965945994801374e-17
-5.926285270163677e-17
-5.886764020519558e-17
-5.847382028476008e-17
-5.808139076640024e-17
-5.769034947618602e-17
-5.730069424018736e-17
-5.691242288447421e-17
-5.652553323511655e-17
-5.614002311818430e-17
-5.575589035974742e-17
-5.537313278587590e-17
-5.499174822263963e-17
-5.461173449610861e-17
-5.423308943235280e-17
-5.385581085744211e-17
-5.347989659744652e-17
-5.310534447843601e-17
-5.273215232648048e-17
-5.236031796764992e-17
-5.198983922801428e-17
-5.162071393364347e-17
-5.125293991060750e-17
-5.088651498497633e-17
-5.052143698281985e-17
-5.015770373020806e-17
-4.979531305321092e-17
-4.943426277789833e-17
-4.907455073034030e-17
-4.871617473660676e-17
-4.835913262276767e-17
-4.800342221489298e-17
-4.764904133905264e-17
-4.729598782131661e-17
-4.694425948775484e-17
-4.659385416443728e-17
-4.624476967743388e-17
-4.589700385281462e-17
-4.555055451664942e-17
-4.520541949500825e-17
-4.486159661396105e-17
-4.451908369957780e-17
-4.417787857792844e-17
-4.383797907508290e-17
-4.349938301711117e-17
-4.316208823008320e-17
-4.282609254006889e-17
-4.249139377313827e-17
-4.215798975536126e-17
-4.182587831280779e-17
-4.149505727154785e-17
-4.116552445765137e-17
-4.083727769718831e-17
-4.051031481622863e-17
-4.018463364084226e-17
-3.986023199709919e-17
-3.953710771106937e-17
-3.921525860882271e-17
-3.889468251642920e-17
-3.857537725995881e-17
-3.825734066548143e-17
-3.794057055906708e-17
-3.762506476678569e-17
-3.731082111470718e-17
-3.699783742890155e-17
-3.668611153543874e-17
-3.637564126038868e-17
-3.606642442982137e-17
-3.575845886980670e-17
-3.545174240641469e-17
-3.514627286571526e-17
-3.484204807377835e-17
-3.453906585667396e-17
-3.423732404047200e-17
-3.393682045124242e-17
-3.363755291505520e-17
-3.333951925798028e-17
-3.304271730608761e-17
-3.274714488544719e-17
-3.245279982212889e-17
-3.215967994220273e-17
-3.186778307173863e-17
-3.157710703680654e-17
-3.128764966347645e-17
-3.099940877781832e-17
-3.071238220590202e-17
-3.042656777379758e-17
-3.014196330757493e-17
-2.985856663330401e-17
-2.957637557705480e-17
-2.929538796489727e-17
-2.901560162290130e-17
-2.873701437713691e-17
-2.845962405367401e-17
-2.818342847858260e-17
-2.790842547793260e-17
-2.763461287779397e-17
-2.736198850423668e-17
-2.709055018333065e-17
-2.682029574114585e-17
-2.655122300375225e-17
-2.628332979721979e-17
-2.601661394761841e-17
-2.575107328101808e-17
-2.548670562348876e-17
-2.522350880110037e-17
-2.496148063992290e-17
-2.470061896602627e-17
-2.444092160548049e-17
-2.418238638435546e-17
-2.392501112872113e-17
-2.366879366464750e-17
-2.341373181820449e-17
-2.315982341546204e-17
-2.290706628249016e-17
-2.265545824535875e-17
-2.240499713013776e-17
-2.215568076289719e-17
-2.190750696970694e-17
-2.166047357663701e-17
-2.141457840975735e-17
-2.116981929513786e-17
-2.092619405884856e-17
-2.068370052695937e-17
-2.044233652554022e-17
-2.020209988066111e-17
-1.996298841839200e-17
-1.972499996480278e-17
-1.948813234596346e-17
-1.925238338794397e-17
-1.901775091681425e-17
-1.878423275864429e-17
-1.855182673950403e-17
-1.832053068546341e-17
-1.809034242259240e-17
-1.786125977696093e-17
-1.763328057463898e-17
-1.740640264169649e-17
-1.718062380420341e-17
-1.695594188822971e-17
-1.673235471984533e-17
-1.650986012512020e-17
-1.628845593012433e-17
-1.606813996092763e-17
-1.584891004360007e-17
-1.563076400421160e-17
-1.541369966883216e-17
-1.519771486353172e-17
-1.498280741438024e-17
-1.476897514744766e-17
-1.455621588880394e-17
-1.434452746451902e-17
-1.413390770066286e-17
-1.392435442330542e-17
-1.371586545851666e-17
-1.350843863236650e-17
-1.330207177092495e-17
-1.309676270026190e-17
-1.289250924644735e-17
-1.268930923555124e-17
-1.248716049364350e-17
-1.228606084679412e-17
-1.208600812107306e-17
-1.188700014255021e-17
-1.168903473729558e-17
-1.149210973137911e-17
-1.129622295087074e-17
-1.110137222184045e-17
-1.090755537035817e-17
-1.071477022249386e-17
-1.052301460431748e-17
-1.033228634189897e-17
-1.014258326130829e-17
-9.953903188615407e-18
-9.766243949890259e-18
-9.579603371202800e-18
-9.393979278622990e-18
-9.209369498220763e-18
-9.025771856066102e-18
-8.843184178228945e-18
-8.661604290779248e-18
-8.481030019786962e-18
-8.301459191322030e-18
-8.122889631454428e-18
-7.945319166254100e-18
-7.768745621790999e-18
-7.593166824135075e-18
-7.418580599356285e-18
-7.244984773524568e-18
-7.072377172709902e-18
-6.900755622982230e-18
-6.730117950411503e-18
-6.560461981067677e-18
-6.391785541020704e-18
-6.224086456340526e-18
-6.057362553097119e-18
-5.891611657360414e-18
-5.726831595200400e-18
-5.563020192686994e-18
-5.400175275890149e-18
-5.238294670879844e-18
-5.077376203726019e-18
-4.917417700498616e-18
-4.758416987267613e-18
-4.600371890102961e-18
-4.443280235074581e-18
-4.287139848252460e-18
-4.131948555706528e-18
-3.977704183506762e-18
-3.824404557723104e-18
-3.672047504425507e-18
-3.520630849683924e-18
-3.370152419568310e-18
-3.220610040148606e-18
-3.072001537494788e-18
-2.924324737676798e-18
-2.777577466764591e-18
-2.631757550828117e-18
-2.486862815937333e-18
-2.342891088162180e-18
-2.199840193572633e-18
-2.057707958238634e-18
-1.916492208230138e-18
-1.776190769617097e-18
-1.636801468469456e-18
-1.498322130857187e-18
-1.360750582850234e-18
-1.224084650518550e-18
-1.088322159932089e-18
-9.534609371608034e-19
-8.194988082746383e-19
-6.864335993435656e-19
-5.542631364375292e-19
-4.229852456264826e-19
-2.925977529803791e-19
-1.630984845691632e-19
-3.448526646280645e-20
9.324407526874694e-20
2.200917145555523e-19
3.460598253276298e-19
4.711505815150523e-19
5.953661570478666e-19
7.187087258561016e-19
8.411804618698127e-19
9.627835390190548e-19
1.083520131233849e-18
1.203392412444277e-18
1.322402556580358e-18
1.440552737572148e-18
1.557845129349702e-18
1.674281905843050e-18
1.789865240982246e-18
1.904597308697338e-18
2.018480282918373e-18
2.131516337575395e-18
2.243707646598460e-18
2.355056383917599e-18
2.465564723462867e-18
2.575234839164309e-18
2.684068904951973e-18
2.792069094755912e-18
2.899237582506158e-18
3.005576542132765e-18
3.111088147565781e-18
3.215774572735251e-18
3.319637991571221e-18
3.422680578003746e-18
3.524904505962858e-18
3.626311949378611e-18
3.726905082181051e-18
3.826686078300225e-18
3.925657111666186e-18
4.023820356208967e-18
4.121177985858622e-18
4.217732174545204e-18
4.313485096198740e-18
4.408438924749295e-18
4.502595834126917e-18
4.595957998261638e-18
4.688527591083513e-18
4.780306786522594e-18
4.871297758508908e-18
4.961502680972523e-18
5.050923727843482e-18
5.139563073051820e-18
5.227422890527599e-18
5.314505354200849e-18
5.400812638001626e-18
5.486346915859970e-18
5.571110361705943e-18
5.655105149469582e-18
5.738333453080922e-18
5.820797446470032e-18
5.902499303566943e-18
5.983441198301698e-18
6.063625304604364e-18
6.143053796404974e-18
6.221728847633566e-18
6.299652632220206e-18
6.376827324094925e-18
6.453255097187772e-18
6.528938125428806e-18
6.603878582748064e-18
6.678078643075593e-18
6.751540480341431e-18
6.824266268475639e-18
6.896258181408260e-18
6.967518393069330e-18
7.038049077388914e-18
7.107852408297049e-18
7.176930559723771e-18
7.245285705599141e-18
7.312920019853207e-18
7.379835676416001e-18
7.446034849217586e-18
7.511519712188004e-18
7.576292439257287e-18
7.640355204355498e-18
7.703710181412686e-18
7.766359544358878e-18
7.828305467124145e-18
7.889550123638519e-18
7.950095687832044e-18
8.009944333634772e-18
8.069098234976757e-18
8.127559565788028e-18
8.185330499998649e-18
8.242413211538662e-18
8.298809874338102e-18
8.354522662327024e-18
8.409553749435482e-18
8.463905309593515e-18
8.517579516731162e-18
8.570578544778488e-18
8.622904567665523e-18
8.674559759322315e-18
8.725546293678926e-18
8.775866344665390e-18
8.825522086211747e-18
8.874515692248061e-18
8.922849336704369e-18
8.970525193510711e-18
9.017545436597148e-18
9.063912239893720e-18
9.109627777330468e-18
9.154694222837449e-18
9.199113750344700e-18
9.242888533782272e-18
9.286020747080213e-18
9.328512564168572e-18
9.370366158977382e-18
9.411583705436708e-18
9.452167377476583e-18
9.492119349027058e-18
9.531441794018182e-18
9.570136886380000e-18
9.608206800042560e-18
9.645653708935901e-18
9.682479786990080e-18
9.718687208135136e-18
9.754278146301116e-18
9.789254775418075e-18
9.823619269416053e-18
9.857373802225094e-18
9.890520547775250e-18
9.923061679996562e-18
9.954999372819080e-18
9.986335800172855e-18
1.001707313598793e-17
1.004721355419434e-17
1.007675922872216e-17
1.010571233350140e-17
1.013407504246213e-17
1.016184952953440e-17
1.018903796864825e-17
1.021564253373371e-17
1.024166539872086e-17
1.026710873753972e-17
1.029197472412034e-17
1.031626553239278e-17
1.033998333628707e-17
1.036313030973327e-17
1.038570862666142e-17
1.040772046100157e-17
1.042916798668376e-17
1.045005337763805e-17
1.047037880779447e-17
1.049014645108308e-17
1.050935848143391e-17
1.052801707277703e-17
1.054612439904247e-17
1.056368263416027e-17
1.058069395206050e-17
1.059716052667319e-17
1.061308453192838e-17
1.062846814175614e-17
1.064331353008650e-17
1.065762287084951e-17
1.067139833797522e-17
1.068464210539367e-17
1.069735634703490e-17
1.070954323682898e-17
1.072120494870594e-17
1.073234365659583e-17
1.074296153442869e-17
1.075306075613458e-17
1.076264349564354e-17
1.077171192688561e-17
1.078026822379084e-17
1.078831456028929e-17
1.079585311031099e-17
1.080288604778599e-17
1.080941554664434e-17
1.081544378081608e-17
1.082097292423127e-17
1.082600515081995e-17
1.083054263451216e-17
1.083458754923796e-17
1.083814206892738e-17
1.084120836751047e-17
1.084378861891729e-17
1.084588499707788e-17
1.084749967592228e-17
1.084863482938054e-17
1.084929263138271e-17
1.084947525585883e-17
1.084918487673896e-17
1.084842366795313e-17
1.084719380343140e-17
1.084549745710380e-17
1.084333680290040e-17
1.084071401475123e-17
1.083763126658634e-17
1.083409073233578e-17
1.083009458592958e-17
1.082564500129781e-17
1.082074415237051e-17
1.081539421307772e-17
1.080959735734949e-17
1.080335575911587e-17
1.079667159230690e-17
1.078954703085263e-17
1.078198424868311e-17
1.077398541972838e-17
1.076555271791848e-17
1.075668831718348e-17
1.074739439145341e-17
1.073767311465832e-17
1.072752666072825e-17
1.071695720359325e-17
1.070596691718338e-17
1.069455797542867e-17
1.068273255225917e-17
1.067049282160493e-17
1.065784095739600e-17
1.064477913356241e-17
1.063130952403423e-17
1.061743430274149e-17
1.060315564361424e-17
1.058847572058253e-17
1.057339670757641e-17
1.055792077852592e-17
1.054205010736110e-17
1.052578686801202e-17
1.050913323440870e-17
1.049209138048120e-17
1.047466348015956e-17
1.045685170737384e-17
1.043865823605407e-17
1.042008524013031e-17
1.040113489353259e-17
1.038180937019097e-17
1.036211084403550e-17
1.034204148899622e-17
1.032160347900318e-17
1.030079898798642e-17
1.027963018987599e-17
1.025809925860194e-17
1.023620836809431e-17
1.021395969228314e-17
1.019135540509850e-17
1.016839768047042e-17
1.014508869232895e-17
1.012143061460413e-17
1.009742562122602e-17
1.007307588612466e-17
1.004838358323009e-17
1.002335088647237e-17
9.997979969781534e-18
9.972273007087635e-18
9.946232172320714e-18
9.919859639410833e-18
9.893157582288020e-18
9.866128174882331e-18
9.838773591123807e-18
9.811096004942501e-18
9.783097590268457e-18
9.754780521031724e-18
9.726146971162337e-18
9.697199114590365e-18
9.667939125245838e-18
9.638369177058800e-18
9.608491443959302e-18
9.578308099877399e-18
9.547821318743127e-18
9.517033274486531e-18
9.485946141037678e-18
9.454562092326588e-18
9.422883302283316e-18
9.390911944837914e-18
9.358650193920428e-18
9.326100223460904e-18
9.293264207389383e-18
9.260144319635930e-18
9.226742734130561e-18
9.193061624803342e-18
9.159103165584321e-18
9.124869530403538e-18
9.090362893191039e-18
9.055585427876877e-18
9.020539308391090e-18
8.985226708663731e-18
8.949649802624854e-18
8.913810764204493e-18
8.877711767332693e-18
8.841354985939510e-18
8.804742593954980e-18
8.767876765309160e-18
8.730759673932100e-18
8.693393493753828e-18
8.655780398704404e-18
8.617922562713877e-18
8.579822159712282e-18
8.541481363629675e-18
8.502902348396105e-18
8.464087287941620e-18
8.425038356196250e-18
8.385757727090047e-18
8.346247574553072e-18
8.306510072515357e-18
8.266547394906949e-18
8.226361715657909e-18
8.185955208698263e-18
8.145330047958076e-18
8.104488407367391e-18
8.063432460856244e-18
8.022164382354693e-18
7.980686345792773e-18
7.939000525100541e-18
7.897109094208035e-18
7.855014227045323e-18
7.812718097542416e-18
7.770222879629388e-18
7.727530747236275e-18
7.684643874293126e-18
7.641564434729982e-18
7.598294602476908e-18
7.554836551463923e-18
7.511192455621096e-18
7.467364488878471e-18
7.423354825166086e-18
7.379165638413985e-18
7.334799102552221e-18
7.290257391510844e-18
7.245542679219892e-18
7.200657139609417e-18
7.155602946609477e-18
7.110382274150092e-18
7.064997296161324e-18
7.019450186573226e-18
6.973743119315830e-18
6.927878268319195e-18
6.881857807513365e-18
6.835683910828373e-18
6.789358752194288e-18
6.742884505541144e-18
6.696263344798981e-18
6.649497443897854e-18
6.602588976767809e-18
6.555540117338897e-18
6.508353039541150e-18
6.461029917304643e-18
6.413572924559390e-18
6.365984235235458e-18
6.318266023262884e-18
6.270420462571720e-18
6.222449727092007e-18
6.174355990753791e-18
6.126141427487129e-18
6.077808211222067e-18
6.029358515888633e-18
5.980794515416901e-18
5.932118383736887e-18
5.883332294778663e-18
5.834438422472266e-18
5.785438940747745e-18
5.736336023535135e-18
5.687131844764499e-18
5.637828578365882e-18
5.588428398269312e-18
5.538933478404857e-18
5.489345992702552e-18
5.439668115092443e-18
5.389902019504587e-18
5.340049879869022e-18
5.290113870115799e-18
5.240096164174963e-18
5.189998935976554e-18
5.139824359450630e-18
5.089574608527231e-18
5.039251857136396e-18
4.988858279208182e-18
4.938396048672635e-18
4.887867339459810e-18
4.837274325499740e-18
4.786619180722470e-18
4.735904079058053e-18
4.685131194436539e-18
4.634302700787964e-18
4.583420772042391e-18
4.532487582129845e-18
4.481505304980395e-18
4.430476114524069e-18
4.379402184690918e-18
4.328285689410993e-18
4.277128802614342e-18
4.225933698231020e-18
4.174702550191043e-18
4.123437532424477e-18
4.072140818861381e-18
4.020814583431790e-18
3.969461000065752e-18
3.918082242693301e-18
3.866680485244488e-18
3.815257901649383e-18
3.763816665838004e-18
3.712358951740402e-18
3.660886933286634e-18
3.609402784406768e-18
3.557908679030797e-18
3.506406791088800e-18
3.454899294510828e-18
3.403388363226922e-18
3.351876171167114e-18
3.300364892261480e-18
3.248856700440037e-18
3.197353769632838e-18
3.145858273769936e-18
3.094372386781382e-18
3.042898282597228e-18
2.991438135147486e-18
2.939994118362231e-18
2.888568406171517e-18
2.837163172505387e-18
2.785780591293859e-18
2.734422836467010e-18
2.683092081954871e-18
2.631790501687498e-18
2.580520269594927e-18
2.529283559607231e-18
2.478082545654415e-18
2.426919401666550e-18
2.375796301573683e-18
2.324715419305859e-18
2.273678928793119e-18
2.222689003965533e-18
2.171747818753097e-18
2.120857547085916e-18
2.070020362893998e-18
2.019238440107402e-18
1.968513952656168e-18
1.917849074470352e-18
1.867245979479999e-18
1.816706841615148e-18
1.766233834805854e-18
1.715829132982171e-18
1.665494910074122e-18
1.615233340011769e-18
1.565046596725151e-18
1.514936854144330e-18
1.464906286199338e-18
1.414957066820238e-18
1.365091369937050e-18
1.315311369479829e-18
1.265619239378639e-18
1.216017153563510e-18
1.166507285964497e-18
1.117091810511638e-18
1.067772901134997e-18
1.018552731764603e-18
9.694334763305013e-19
9.204173087627578e-19
8.715064029914012e-19
8.227029329464777e-19
7.740090725580516e-19
7.254269957561520e-19
6.769588764708253e-19
6.286068886321267e-19
5.803732061701033e-19
5.322600030147925e-19
4.842694530962588e-19
4.364037303445219e-19
3.886650086896553e-19
3.410554620616967e-19
2.935772643906746e-19
2.462325896066535e-19
1.990236116396893e-19
1.519525044198011e-19
1.050214418770539e-19
5.823259794150330e-20
1.158814654317767e-20
-3.490973838787656e-20
-8.125888292160356e-20
-1.274571131279660e-19
-1.735022550768986e-19
-2.193921348383735e-19
-2.651245784823346e-19
-3.106974120787451e-19
-3.561084616975504e-19
-4.013555534087001e-19
-4.464365132821595e-19
-4.913491673878755e-19
-5.360913417957952e-19
-5.806608625758847e-19
-6.250555557980911e-19
-6.692732475323616e-19
-7.133117638486557e-19
-7.571689308169333e-19
-8.008425745071353e-19
-8.443305209892273e-19
-8.876305963331567e-19
-9.307406266088708e-19
-9.736584378863352e-19
-1.016381856235497e-18
-1.058908707726304e-18
-1.101236818428722e-18
-1.143364014412697e-18
-1.185288121748178e-18
-1.227006966505124e-18
-1.268518374753493e-18
-1.309820172563234e-18
-1.350910186004295e-18
-1.391786241146639e-18
-1.432446164060215e-18
-1.472887780814971e-18
-1.513108917480871e-18
-1.553107400127862e-18
-1.592881054825894e-18
-1.632427707644931e-18
-1.671745184654914e-18
-1.710831311925808e-18
-1.749683915527556e-18
-1.788300821530122e-18
-1.826679856003448e-18
-1.864818845017499e-18
-1.902715614642223e-18
-1.940367990947568e-18
-1.977773800003497e-18
-2.014930867879960e-18
-2.051837020646904e-18
-2.088490084374293e-18
-2.124887885132075e-18
-2.161028248990199e-18
-2.196909002018623e-18
-2.232527970287306e-18
-2.267882979866196e-18
-2.302971856825240e-18
-2.337792427234404e-18
-2.372342517163634e-18
-2.406619952682881e-18
-2.440622559862106e-18
-2.474348164771259e-18
-2.507794593480288e-18
-2.540959672059156e-18
-2.573841226577806e-18
-2.606437083106198e-18
-2.638745067714289e-18
-2.670763006472028e-18
-2.702488725449364e-18
-2.733920050716259e-18
-2.765054808342662e-18
-2.795890824398523e-18
-2.826425924953803e-18
-2.856657936078451e-18
-2.886584683842417e-18
-2.916203994315661e-18
-2.945513693568131e-18
-2.974511607669783e-18
-3.003195562690575e-18
-3.031563384700455e-18
-3.059612899769377e-18
-3.087341933967292e-18
-3.114748313364159e-18
-3.141829864029929e-18
-3.168584412034551e-18
-3.195009783447986e-18
-3.221103804340185e-18
-3.246864300781095e-18
-3.272289098840676e-18
-3.297376024588883e-18
-3.322122904095663e-18
-3.346527563430977e-18
-3.370587828664773e-18
-3.394301525867004e-18
-3.417666481107627e-18
-3.440680520456594e-18
-3.463341469983855e-18
-3.485647155759370e-18
-3.507595403853088e-18
-3.529184040334961e-18
-3.550410891274944e-18
-3.571273782742994e-18
-3.591770540809058e-18
-3.611898991543097e-18
-3.631656961015059e-18
-3.651042275294900e-18
-3.670052760452569e-18
-3.688686242558025e-18
-3.706940547681219e-18
-3.724813501892102e-18
-3.742302931260633e-18
-3.759406661856758e-18
-3.776122519750438e-18
-3.792448331011619e-18
-3.808381921710262e-18
-3.823921117916317e-18
-3.839063745699738e-18
-3.853807631130477e-18
-3.868150600278489e-18
-3.882090479213726e-18
-3.895625094006138e-18
-3.908752270725686e-18
-3.921469835442320e-18
-3.933775614225991e-18
-3.945667433146657e-18
-3.957143118274269e-18
-3.968200495678776e-18
-3.978837391430141e-18
-3.989051631598312e-18
-3.998841042253241e-18
-4.008203449464885e-18
-4.017136679303194e-18
-4.025638557838121e-18
-4.033706911139624e-18
-4.041339565277654e-18
-4.048534346322162e-18
-4.055289080343105e-18
-4.061601593410437e-18
-4.067469711594105e-18
-4.072891260964070e-18
-4.077864067590282e-18
-4.082385957542694e-18
-4.086454756891261e-18
-4.090068291705934e-18
-4.093224388056670e-18
-4.095920872013418e-18
-4.098155569646135e-18
-4.099926307024773e-18
-4.101230910219286e-18
-4.102067205299627e-18
-4.102433018335749e-18
-4.102326175397606e-18
-4.101744502555151e-18
-4.100685825878338e-18
-4.099147971437120e-18
-4.097128765301451e-18
-4.094626033541283e-18
-4.091637602226571e-18
-4.088161297427269e-18
-4.084194945213326e-18
-4.079736371654701e-18
-4.074783402821344e-18
-4.069333864783210e-18
-4.063385583610252e-18
-4.056936385372423e-18
-4.049984096139676e-18
-4.042526541981965e-18
-4.034561548969244e-18
-4.026086943171466e-18
-4.017100550658583e-18
-4.007600197500554e-18
-3.997583709767324e-18
-3.987048913528852e-18
-3.975993634855090e-18
-3.964415699815990e-18
-3.952312934481508e-18
-3.939683164921599e-18
-3.926524217206210e-18
-3.912833917405298e-18
-3.898610091588816e-18
-3.883850565826719e-18
-3.868553166188959e-18
-3.852715718745493e-18
-3.836336049566269e-18
-3.819411984721244e-18
-3.801941350280366e-18
-3.783921972313593e-18
-3.765351676890879e-18
-3.746228290082182e-18
-3.726549637957443e-18
-3.706313546586620e-18
-3.685517842039672e-18
-3.664160350386548e-18
-3.642238897697201e-18
-3.619751310041589e-18
-3.596695413489663e-18
-3.573069034111376e-18
-3.548869997976675e-18
-3.524096131155522e-18
-3.498745259717868e-18
-3.472815209733665e-18
-3.446303807272875e-18
-3.419208878405437e-18
-3.391528249201311e-18
-3.363259745730452e-18
-3.334401194062811e-18
-3.304950420268346e-18
-3.274905250417008e-18
-3.244263510578751e-18
-3.213023026823522e-18
-3.181181625221279e-18
-3.148737131841975e-18
-3.115687372755565e-18
-3.082030174032011e-18
-3.047763361741247e-18
-3.012884761953237e-18
-2.977392200737933e-18
-2.941283504165290e-18
-2.904556498305267e-18
-2.867209009227810e-18
-2.829238863002874e-18
-2.790643885700404e-18
-2.751421903390363e-18
-2.711570742142705e-18
-2.671088228027378e-18
-2.629972187114340e-18
-2.588220445473556e-18
-2.545830829174954e-18
-2.502801164288497e-18
-2.459129276884143e-18
-2.414812993031849e-18
-2.369850138801559e-18
-2.324238540263236e-18
-2.277976023486830e-18
-2.231060414542283e-18
-2.183489539499558e-18
-2.135261224428608e-18
-2.086373295399388e-18
-2.036823578481863e-18
-1.986609899745960e-18
-1.935730085261645e-18
-1.884181961098873e-18
-1.831963353327602e-18
-1.779072088017775e-18
-1.725505991239356e-18
-1.671262889062295e-18
-1.616340607556535e-18
-1.560736972792037e-18
-1.504449810838757e-18
-1.447476947766645e-18
-1.389817867402348e-18
-1.331486482195597e-18
-1.272504133801991e-18
-1.212892225275574e-18
-1.152672159670376e-18
-1.091865340040432e-18
-1.030493169439755e-18
-9.685770509223986e-19
-9.061383875423569e-19
-8.431985823536755e-19
-7.797790384103829e-19
-7.159011587665077e-19
-6.515863464760782e-19
-5.868560045931410e-19
-5.217315361716883e-19
-4.562343442657670e-19
-3.903858319294048e-19
-3.242074022166405e-19
-2.577204581814831e-19
-1.909464028779894e-19
-1.239066393601504e-19
-5.662257068201371e-20
1.088440010239294e-20
7.859286993904083e-20
1.464814357739011e-19
2.145286945529460e-19
2.827132432221273e-19
3.510136787274550e-19
4.194085980148820e-19
4.878765980303690e-19
5.563962757199084e-19
6.249462280294609e-19
6.935050519049788e-19
7.620513442924730e-19
8.305637021378953e-19
8.990207223872166e-19
9.674010019864094e-19
1.035683137881445e-18
1.103845727018276e-18
1.171867366342912e-18
1.239726652801304e-18
1.307402183339416e-18
1.374872554903239e-18
1.442116364438733e-18
1.509112208891851e-18
1.575838685208604e-18
1.642274390334943e-18
1.708397921216840e-18
1.774187874800267e-18
1.839622848031194e-18
1.904681437855586e-18
1.969342241219421e-18
2.033583855068673e-18
2.097384876349330e-18
2.160723902007327e-18
2.223579528988673e-18
2.285930354239304e-18
2.347754974705207e-18
2.409031987332355e-18
2.469739989066721e-18
2.529857576854292e-18
2.589363347641004e-18
2.648235898372865e-18
2.706453825995796e-18
2.763995727455834e-18
2.820840199698901e-18
2.876965839671002e-18
2.932351244318076e-18
2.986975010586124e-18
3.040815735421076e-18
3.093852015768960e-18
3.146062448575705e-18
3.197425630787296e-18
3.247920159349720e-18
3.297524631208920e-18
3.346217643310893e-18
3.393977792601573e-18
3.440783676026983e-18
3.486613890533058e-18
3.531447033065792e-18
3.575261700571131e-18
3.618036489995061e-18