/*--------------------------------*- C++ -*----------------------------------*\
| =========                 |                                                 |
| \\      /  F ield         | OpenFOAM: The Open Source CFD Toolbox           |
|  \\    /   O peration     | Version:  5.x                                   |
|   \\  /    A nd           | Web:      www.OpenFOAM.org                      |
|    \\/     M anipulation  |                                                 |
\*---------------------------------------------------------------------------*/
FoamFile
{
    version     2.0;
    format      ascii;
    class       volScalarField;
    location    "0";
    object       H;
}
// * * * * * * * * * * * * * * * * * * * * * * * * * * * * * * * * * * * * * //

dimensions      [0 0 0 0 0 0 0];

internalField   nonuniform List<scalar>
4830
(
-1.813459970808425e-16
-1.806334866634614e-16
-1.799226846041570e-16
-1.792135889712413e-16
-1.785061978330265e-16
-1.778005092578245e-16
-1.770965213139475e-16
-1.763942320697073e-16
-1.756936395934162e-16
-1.749947419533861e-16
-1.742975372179291e-16
-1.736020234553572e-16
-1.729081987339825e-16
-1.722160611221169e-16
-1.715256086880727e-16
-1.708368395001617e-16
-1.701497516266961e-16
-1.694643431359879e-16
-1.687806120963491e-16
-1.680985565760918e-16
-1.674181746435280e-16
-1.667394643669699e-16
-1.660624238147293e-16
-1.653870510551184e-16
-1.647133441564492e-16
-1.640413011870338e-16
-1.633709202151841e-16
-1.627021993092123e-16
-1.620351365374304e-16
-1.613697299681504e-16
-1.607059776696844e-16
-1.600438777103445e-16
-1.593834281584426e-16
-1.587246270822908e-16
-1.580674725502011e-16
-1.574119626304857e-16
-1.567580953914565e-16
-1.561058689014256e-16
-1.554552812287051e-16
-1.548063304416070e-16
-1.541590146084432e-16
-1.535133317975259e-16
-1.528692800771672e-16
-1.522268575156790e-16
-1.515860621813735e-16
-1.509468921425625e-16
-1.503093454675583e-16
-1.496734202246728e-16
-1.490391144822182e-16
-1.484064263085063e-16
-1.477753537718494e-16
-1.471458949405593e-16
-1.465180478829482e-16
-1.458918106673282e-16
-1.452671813620112e-16
-1.446441580353093e-16
-1.440227387555345e-16
-1.434029215909990e-16
-1.427847046100147e-16
-1.421680858808937e-16
-1.415530634719479e-16
-1.409396354514896e-16
-1.403277998878307e-16
-1.397175548492833e-16
-1.391088984041593e-16
-1.385018286207709e-16
-1.378963435674302e-16
-1.372924413124491e-16
-1.366901199241396e-16
-1.360893774708139e-16
-1.354902120207839e-16
-1.348926216423618e-16
-1.342966044038596e-16
-1.337021583735893e-16
-1.331092816198629e-16
-1.325179722109926e-16
-1.319282282152903e-16
-1.313400477010680e-16
-1.307534287366379e-16
-1.301683693903120e-16
-1.295848677304024e-16
-1.290029218252210e-16
-1.284225297430799e-16
-1.278436895522912e-16
-1.272663993211669e-16
-1.266906571180191e-16
-1.261164610111598e-16
-1.255438090689009e-16
-1.249726993595547e-16
-1.244031299514332e-16
-1.238350989128483e-16
-1.232686043121121e-16
-1.227036442175366e-16
-1.221402166974341e-16
-1.215783198201163e-16
-1.210179516538955e-16
-1.204591102670837e-16
-1.199017937279928e-16
-1.193460001049349e-16
-1.187917274662222e-16
-1.182389738801666e-16
-1.176877374150801e-16
-1.171380161392748e-16
-1.165898081210629e-16
-1.160431114287562e-16
-1.154979241306670e-16
-1.149542442951071e-16
-1.144120699903886e-16
-1.138713992848236e-16
-1.133322302467242e-16
-1.127945609444023e-16
-1.122583894461701e-16
-1.117237138203395e-16
-1.111905321352227e-16
-1.106588424591316e-16
-1.101286428603783e-16
-1.095999314072749e-16
-1.090727061681333e-16
-1.085469652112658e-16
-1.080227066049841e-16
-1.074999284176006e-16
-1.069786287174271e-16
-1.064588055727757e-16
-1.059404570519584e-16
-1.054235812232874e-16
-1.049081761550747e-16
-1.043942399156322e-16
-1.038817705732721e-16
-1.033707661963064e-16
-1.028612248530471e-16
-1.023531446118063e-16
-1.018465235408960e-16
-1.013413597086282e-16
-1.008376511833152e-16
-1.003353960332687e-16
-9.983459232680095e-17
-9.933523813222399e-17
-9.883733151784980e-17
-9.834087055199045e-17
-9.784585330295796e-17
-9.735227783906441e-17
-9.686014222862186e-17
-9.636944453994234e-17
-9.588018284133787e-17
-9.539235520112046e-17
-9.490595968760225e-17
-9.442099436909525e-17
-9.393745731391149e-17
-9.345534659036300e-17
-9.297466026676183e-17
-9.249539641142007e-17
-9.201755309264975e-17
-9.154112837876289e-17
-9.106612033807153e-17
-9.059252703888771e-17
-9.012034654952356e-17
-8.964957693829098e-17
-8.918021627350215e-17
-8.871226262346905e-17
-8.824571405650371e-17
-8.778056864091824e-17
-8.731682444502462e-17
-8.685447953713492e-17
-8.639353198556120e-17
-8.593397985861545e-17
-8.547582122460978e-17
-8.501905415185624e-17
-8.456367670866682e-17
-8.410968696335359e-17
-8.365708298422860e-17
-8.320586283960389e-17
-8.275602459779148e-17
-8.230756632710347e-17
-8.186048609585187e-17
-8.141478197234872e-17
-8.097045202490607e-17
-8.052749432183598e-17
-8.008590693145050e-17
-7.964568792206165e-17
-7.920683536198146e-17
-7.876934731952204e-17
-7.833322186299538e-17
-7.789845706071354e-17
-7.746505098098853e-17
-7.703300169213248e-17
-7.660230726245737e-17
-7.617296576027525e-17
-7.574497525389820e-17
-7.531833381163821e-17
-7.489303950180736e-17
-7.446909039271770e-17
-7.404648455268127e-17
-7.362522005001011e-17
-7.320529495301625e-17
-7.278670733001176e-17
-7.236945524930867e-17
-7.195353677921903e-17
-7.153894998805490e-17
-7.112569294412830e-17
-7.071376371575129e-17
-7.030316037123590e-17
-6.989388097889419e-17
-6.948592360703822e-17
-6.907928632397998e-17
-6.867396719803155e-17
-6.826996429750502e-17
-6.786727569071235e-17
-6.746589944596563e-17
-6.706583363157692e-17
-6.666707631585824e-17
-6.626962556712162e-17
-6.587347945367914e-17
-6.547863604384284e-17
-6.508509340592473e-17
-6.469284960823691e-17
-6.430190271909137e-17
-6.391225080680020e-17
-6.352389193967542e-17
-6.313682418602908e-17
-6.275104561417322e-17
-6.236655429241990e-17
-6.198334828908114e-17
-6.160142567246900e-17
-6.122078451089556e-17
-6.084142287267280e-17
-6.046333882611279e-17
-6.008653043952761e-17
-5.971099578122926e-17
-5.933673291952978e-17
-5.896373992274126e-17
-5.859201485917572e-17
-5.822155579714519e-17
-5.785236080496174e-17
-5.748442795093741e-17
-5.711775530338423e-17
-5.675234093061427e-17
-5.638818290093954e-17
-5.602527928267212e-17
-5.566362814412405e-17
-5.530322755360735e-17
-5.494407557943409e-17
-5.458617028991630e-17
-5.422950975336602e-17
-5.387409203809532e-17
-5.351991521241624e-17
-5.316697734464080e-17
-5.281527650308106e-17
-5.246481075604906e-17
-5.211557817185688e-17
-5.176757681881651e-17
-5.142080476524003e-17
-5.107526007943947e-17
-5.073094082972687e-17
-5.038784508441430e-17
-5.004597091181379e-17
-4.970531638023739e-17
-4.936587955799714e-17
-4.902765851340508e-17
-4.869065131477325e-17
-4.835485603041374e-17
-4.802027072863853e-17
-4.768689347775969e-17
-4.735472234608931e-17
-4.702375540193936e-17
-4.669399071362193e-17
-4.636542634944907e-17
-4.603806037773280e-17
-4.571189086678516e-17
-4.538691588491825e-17
-4.506313350044403e-17
-4.474054178167461e-17
-4.441913879692204e-17
-4.409892261449830e-17
-4.377989130271550e-17
-4.346204292988567e-17
-4.314537556432082e-17
-4.282988727433303e-17
-4.251557612823434e-17
-4.220244019433679e-17
-4.189047754095243e-17
-4.157968623639329e-17
-4.127006434897145e-17
-4.096160994699891e-17
-4.065432109878773e-17
-4.034819587264997e-17
-4.004323233689768e-17
-3.973942855984286e-17
-3.943678260979761e-17
-3.913529255507394e-17
-3.883495646398392e-17
-3.853577240483957e-17
-3.823773844595295e-17
-3.794085265563609e-17
-3.764511310220107e-17
-3.735051785395989e-17
-3.705706497922462e-17
-3.676475254630731e-17
-3.647357862351998e-17
-3.618354127917471e-17
-3.589463858158352e-17
-3.560686859905845e-17
-3.532022939991156e-17
-3.503471905245489e-17
-3.475033562500049e-17
-3.446707718586041e-17
-3.418494180334667e-17
-3.390392754577134e-17
-3.362403248144647e-17
-3.334525467868407e-17
-3.306759220579621e-17
-3.279104313109495e-17
-3.251560552289228e-17
-3.224127744950030e-17
-3.196805697923106e-17
-3.169594218039654e-17
-3.142493112130886e-17
-3.115502187028000e-17
-3.088621249562206e-17
-3.061850106564706e-17
-3.035188564866702e-17
-3.008636431299405e-17
-2.982193512694014e-17
-2.955859615881734e-17
-2.929634547693772e-17
-2.903518114961331e-17
-2.877510124515614e-17
-2.851610383187831e-17
-2.825818697809178e-17
-2.800134875210866e-17
-2.774558722224098e-17
-2.749090045680077e-17
-2.723728652410010e-17
-2.698474349245102e-17
-2.673326943016552e-17
-2.648286240555570e-17
-2.623352048693358e-17
-2.598524174261120e-17
-2.573802424090063e-17
-2.549186605011393e-17
-2.524676523856307e-17
-2.500271987456016e-17
-2.475972802641721e-17
-2.451778776244630e-17
-2.427689715095946e-17
-2.403705426026873e-17
-2.379825715868615e-17
-2.356050391452378e-17
-2.332379259609363e-17
-2.308812127170780e-17
-2.285348800967830e-17
-2.261989087831718e-17
-2.238732794593648e-17
-2.215579728084827e-17
-2.192529695136454e-17
-2.169582502579740e-17
-2.146737957245885e-17
-2.123995865966098e-17
-2.101356035571580e-17
-2.078818272893533e-17
-2.056382384763168e-17
-2.034048178011685e-17
-2.011815459470288e-17
-1.989684035970186e-17
-1.967653714342580e-17
-1.945724301418673e-17
-1.923895604029674e-17
-1.902167429006783e-17
-1.880539583181208e-17
-1.859011873384155e-17
-1.837584106446821e-17
-1.816256089200417e-17
-1.795027628476146e-17
-1.773898531105211e-17
-1.752868603918819e-17
-1.731937653748174e-17
-1.711105487424478e-17
-1.690371911778938e-17
-1.669736733642757e-17
-1.649199759847139e-17
-1.628760797223291e-17
-1.608419652602417e-17
-1.588176132815720e-17
-1.568030044694406e-17
-1.547981195069676e-17
-1.528029390772740e-17
-1.508174438634798e-17
-1.488416145487057e-17
-1.468754318160721e-17
-1.449188763486994e-17
-1.429719288297080e-17
-1.410345699422184e-17
-1.391067803693512e-17
-1.371885407942266e-17
-1.352798318999653e-17
-1.333806343696874e-17
-1.314909288865137e-17
-1.296106961335646e-17
-1.277399167939604e-17
-1.258785715508216e-17
-1.240266410872687e-17
-1.221841060864220e-17
-1.203509472314022e-17
-1.185271452053296e-17
-1.167126806913245e-17
-1.149075343725079e-17
-1.131116869319995e-17
-1.113251190529203e-17
-1.095478114183905e-17
-1.077797447115306e-17
-1.060208996154611e-17
-1.042712568133026e-17
-1.025307969881751e-17
-1.007995008231995e-17
-9.907734900149598e-18
-9.736432220618501e-18
-9.566040112038722e-18
-9.396556642722294e-18
-9.227979880981264e-18
-9.060307895127677e-18
-8.893538753473565e-18
-8.727670524330997e-18
-8.562701276012004e-18
-8.398629076828636e-18
-8.235451995092933e-18
-8.073168099116943e-18
-7.911775457212699e-18
-7.751272137692267e-18
-7.591656208867683e-18
-7.432925739050991e-18
-7.275078796554236e-18
-7.118113449689454e-18
-6.962027766768707e-18
-6.806819816104033e-18
-6.652487666007477e-18
-6.499029384791083e-18
-6.346443040766897e-18
-6.194726702246951e-18
-6.043878437543314e-18
-5.893896314968019e-18
-5.744778402833110e-18
-5.596522769450635e-18
-5.449127483132636e-18
-5.302590612191150e-18
-5.156910224938240e-18
-5.012084389685933e-18
-4.868111174746304e-18
-4.724988648431367e-18
-4.582714879053166e-18
-4.441287934923769e-18
-4.300705884355208e-18
-4.160966795659520e-18
-4.022068737148770e-18
-3.884009777135001e-18
-3.746787983930230e-18
-3.610401425846532e-18
-3.474848171195930e-18
-3.340126288290491e-18
-3.206233845442249e-18
-3.073168910963250e-18
-2.940929553165538e-18
-2.809513840361158e-18
-2.678919840862147e-18
-2.549145622980567e-18
-2.420189255028454e-18
-2.292048805317854e-18
-2.164722342160812e-18
-2.038207933869371e-18
-1.912503648755569e-18
-1.787607555131469e-18
-1.663517721309106e-18
-1.540232215600526e-18
-1.417749106317773e-18
-1.296066461772884e-18
-1.175182350277920e-18
-1.055094840144920e-18
-9.358019996859269e-19
-8.173018972129863e-19
-6.995926010381433e-19
-5.826721794734346e-19
-4.665387008309215e-19
-3.511902334226412e-19
-2.366248455606382e-19
-1.228406055569578e-19
-9.835581723637151e-21
1.023921576272630e-19
2.138445441837057e-19
3.245235096336535e-19
4.344309856650383e-19
5.435689039658382e-19
6.519391962240079e-19
7.595437941274877e-19
8.663846293642395e-19
9.724636336222263e-19
1.077782738589381e-18
1.182343875953687e-18
1.286148977403078e-18
1.389199974625517e-18
1.491498799308965e-18
1.593047383141364e-18
1.693847657810675e-18
1.793901555004853e-18
1.893211006411853e-18
1.991777943719630e-18
2.089604298616147e-18
2.186692002789344e-18
2.283042987927184e-18
2.378659185717620e-18
2.473542527848609e-18
2.567694946008112e-18
2.661118371884070e-18
2.753814737164445e-18
2.845785973537193e-18
2.937034012690268e-18
3.027560786311626e-18
3.117368226089226e-18
3.206458263711012e-18
3.294832830864946e-18
3.382493859238982e-18
3.469443280521075e-18
3.555683026399186e-18
3.641215028561259e-18
3.726041218695253e-18
3.810163528489131e-18
3.893583889630829e-18
3.976304233808319e-18
4.058326492709557e-18
4.139652598022488e-18
4.220284481435070e-18
4.300224074635264e-18
4.379473309311010e-18
4.458034117150278e-18
4.535908429841024e-18
4.613098179071191e-18
4.689605296528747e-18
4.765431713901632e-18
4.840579362877811e-18
4.915050175145232e-18
4.988846082391865e-18
5.061969016305653e-18
5.134420908574545e-18
5.206203690886514e-18
5.277319294929500e-18
5.347769652391456e-18
5.417556694960355e-18
5.486682354324142e-18
5.555148562170760e-18
5.622957250188185e-18
5.690110350064358e-18
5.756609793487232e-18
5.822457512144777e-18
5.887655437724939e-18
5.952205501915673e-18
6.016109636404926e-18
6.079369772880664e-18
6.141987843030844e-18
6.203965778543406e-18
6.265305511106325e-18
6.326008972407546e-18
6.386078094135013e-18
6.445514807976698e-18
6.504321045620553e-18
6.562498738754522e-18
6.620049819066576e-18
6.676976218244662e-18
6.733279867976727e-18
6.788962699950737e-18
6.844026645854648e-18
6.898473637376403e-18
6.952305606203972e-18
7.005524484025303e-18
7.058132202528344e-18
7.110130693401059e-18
7.161521888331405e-18
7.212307719007325e-18
7.262490117116792e-18
7.312071014347747e-18
7.361052342388145e-18
7.409436032925944e-18
7.457224017649105e-18
7.504418228245577e-18
7.551020596403310e-18
7.597033053810271e-18
7.642457532154406e-18
7.687295963123667e-18
7.731550278406024e-18
7.775222409689422e-18
7.818314288661810e-18
7.860827847011155e-18
7.902765016425404e-18
7.944127728592513e-18
7.984917915200442e-18
8.025137507937144e-18
8.064788438490565e-18
8.103872638548675e-18
8.142392039799418e-18
8.180348573930754e-18
8.217744172630636e-18
8.254580767587021e-18
8.290860290487858e-18
8.326584673021113e-18
8.361755846874729e-18
8.396375743736670e-18
8.430446295294884e-18
8.463969433237333e-18
8.496947089251969e-18
8.529381195026743e-18
8.561273682249616e-18
8.592626482608538e-18
8.623441527791465e-18
8.653720749486358e-18
8.683466079381167e-18
8.712679449163845e-18
8.741362790522351e-18
8.769518035144638e-18
8.797147114718657e-18
8.824251960932374e-18
8.850834505473736e-18
8.876896680030698e-18
8.902440416291217e-18
8.927467645943245e-18
8.951980300674740e-18
8.975980312173659e-18
8.999469612127955e-18
9.022450132225576e-18
9.044923804154490e-18
9.066892559602642e-18
9.088358330257990e-18
9.109323047808492e-18
9.129788643942099e-18
9.149757050346767e-18
9.169230198710449e-18
9.188210020721105e-18
9.206698448066688e-18
9.224697412435150e-18
9.242208845514449e-18
9.259234678992541e-18
9.275776844557375e-18
9.291837273896915e-18
9.307417898699109e-18
9.322520650651913e-18
9.337147461443282e-18
9.351300262761176e-18
9.364980986293544e-18
9.378191563728344e-18
9.390933926753530e-18
9.403210007057056e-18
9.415021736326880e-18
9.426371046250955e-18
9.437259868517234e-18
9.447690134813675e-18
9.457663776828234e-18
9.467182726248861e-18
9.476248914763516e-18
9.484864274060152e-18
9.493030735826723e-18
9.500750231751188e-18
9.508024693521496e-18
9.514856052825605e-18
9.521246241351471e-18
9.527197190787046e-18
9.532710832820292e-18
9.537789099139157e-18
9.542433921431595e-18
9.546647231385565e-18
9.550430960689024e-18
9.553787041029922e-18
9.556717404096215e-18
9.559223981575859e-18
9.561308705156809e-18
9.562973506527020e-18
9.564220317374450e-18
9.565051069387049e-18
9.565467694252772e-18
9.565472123659577e-18
9.565066289295419e-18
9.564252122848251e-18
9.563031556006029e-18
9.561406520456708e-18
9.559378947888246e-18
9.556950769988589e-18
9.554123918445701e-18
9.550900324947532e-18
9.547281921182039e-18
9.543270638837178e-18
9.538868409600905e-18
9.534077165161170e-18
9.528898837205931e-18
9.523335357423147e-18
9.517388657500764e-18
9.511060669126742e-18
9.504353323989036e-18
9.497268553775600e-18
9.489808290174394e-18
9.481974464873365e-18
9.473769009560473e-18
9.465193855923670e-18
9.456250935650914e-18
9.446942180430158e-18
9.437269521949361e-18
9.427234891896471e-18
9.416840221959447e-18
9.406087443826248e-18
9.394978489184820e-18
9.383515289723123e-18
9.371699777129112e-18
9.359533883090742e-18
9.347019539295966e-18
9.334158677432743e-18
9.320953229189027e-18
9.307405126252770e-18
9.293516300311927e-18
9.279288683054458e-18
9.264724206168314e-18
9.249824801341448e-18
9.234592400261818e-18
9.219028934617379e-18
9.203136336096086e-18
9.186916536385895e-18
9.170371467174755e-18
9.153503060150629e-18
9.136313247001472e-18
9.118803959415230e-18
9.100977129079863e-18
9.082834687683329e-18
9.064378566913582e-18
9.045610698458574e-18
9.026533014006262e-18
9.007147445244597e-18
8.987455923861539e-18
8.967460381545045e-18
8.947162749983065e-18
8.926564960863552e-18
8.905668945874466e-18
8.884476636703765e-18
8.862989965039393e-18
8.841210862569315e-18
8.819141260981483e-18
8.796783091963848e-18
8.774138287204366e-18
8.751208778391005e-18
8.727996497211701e-18
8.704503375354419e-18
8.680731344507117e-18
8.656682336357740e-18
8.632358282594247e-18
8.607761114904598e-18
8.582892764976739e-18
8.557755164498642e-18
8.532350245158242e-18
8.506679938643501e-18
8.480746176642377e-18
8.454550890842826e-18
8.428096012932796e-18
8.401383474600248e-18
8.374415207533135e-18
8.347193143419410e-18
8.319719213947036e-18
8.291995350803957e-18
8.264023485678136e-18
8.235805550257526e-18
8.207343476230078e-18
8.178639195283757e-18
8.149694639106505e-18
8.120511739386281e-18
8.091092427811052e-18
8.061438636068755e-18
8.031552295847353e-18
8.001435338834802e-18
7.971089696719058e-18
7.940517301188070e-18
7.909720083929800e-18
7.878699976632208e-18
7.847458910983232e-18
7.815998818670843e-18
7.784321631382980e-18
7.752429280807610e-18
7.720323698632688e-18
7.688006816546160e-18
7.655480566235990e-18
7.622746879390138e-18
7.589807687696544e-18
7.556664922843167e-18
7.523320516517967e-18
7.489776400408907e-18
7.456034506203921e-18
7.422096765590976e-18
7.387965110258027e-18
7.353641471893034e-18
7.319127782183936e-18
7.284425972818704e-18
7.249537975485284e-18
7.214465721871633e-18
7.179211143665709e-18
7.143776172555460e-18
7.108162740228862e-18
7.072372778373842e-18
7.036408218678375e-18
7.000270992830398e-18
6.963963032517876e-18
6.927486269428769e-18
6.890842635251017e-18
6.854034061672593e-18
6.817062480381453e-18
6.779929823065529e-18
6.742638021412792e-18
6.705189007111196e-18
6.667584711848694e-18
6.629827067313251e-18
6.591918005192805e-18
6.553859457175320e-18
6.515653354948742e-18
6.477301630201050e-18
6.438806214620170e-18
6.400169039894076e-18
6.361392037710713e-18
6.322477139758040e-18
6.283426277724006e-18
6.244241383296586e-18
6.204924388163716e-18
6.165477224013359e-18
6.125901822533464e-18
6.086200115411978e-18
6.046374034336872e-18
6.006425510996104e-18
5.966356477077610e-18
5.926168864269361e-18
5.885864604259309e-18
5.845445628735402e-18
5.804913869385597e-18
5.764271257897863e-18
5.723519725960137e-18
5.682661205260385e-18
5.641697627486543e-18
5.600630924326599e-18
5.559463027468483e-18
5.518195868600149e-18
5.476831379409570e-18
5.435371491584684e-18
5.393818136813451e-18
5.352173246783839e-18
5.310438753183778e-18
5.268616587701242e-18
5.226708682024184e-18
5.184716967840561e-18
5.142643376838310e-18
5.100489840705402e-18
5.058258291129789e-18
5.015950659799425e-18
4.973568878402268e-18
4.931114878626271e-18
4.888590592159381e-18
4.845997950689571e-18
4.803338885904779e-18
4.760615329492965e-18
4.717829213142089e-18
4.674982468540109e-18
4.632077027374959e-18
4.589114821334621e-18
4.546097782107029e-18
4.503027841380146e-18
4.459906930841932e-18
4.416736982180343e-18
4.373519927083320e-18
4.330257697238827e-18
4.286952224334814e-18
4.243605440059248e-18
4.200219276100081e-18
4.156795664145253e-18
4.113336535882731e-18
4.069843823000467e-18
4.026319457186429e-18
3.982765370128553e-18
3.939183493514792e-18
3.895575759033123e-18
3.851944098371481e-18
3.808290443217834e-18
3.764616725260129e-18
3.720924876186322e-18
3.677216827684375e-18
3.633494511442235e-18
3.589759859147853e-18
3.546014802489195e-18
3.502261273154209e-18
3.458501202830852e-18
3.414736523207085e-18
3.370969165970849e-18
3.327201062810111e-18
3.283434145412815e-18
3.239670345466929e-18
3.195911594660416e-18
3.152159824681199e-18
3.108416967217259e-18
3.064684953956541e-18
3.020965716587010e-18
2.977261186796594e-18
2.933573296273282e-18
2.889903976705005e-18
2.846255159779734e-18
2.802628777185422e-18
2.759026760610011e-18
2.715451041741463e-18
2.671903552267739e-18
2.628386223876788e-18
2.584900988256565e-18
2.541449777095032e-18
2.498034522080129e-18
2.454657154899826e-18
2.411319607242071e-18
2.368023810794818e-18
2.324771697246015e-18
2.281565198283632e-18
2.238406245595634e-18
2.195296770869949e-18
2.152238705794534e-18
2.109233982057358e-18
2.066284531346379e-18
2.023392285349542e-18
1.980559175754803e-18
1.937787134250107e-18
1.895078092523428e-18
1.852433982262719e-18
1.809856735155927e-18
1.767348282890999e-18
1.724910557155907e-18
1.682545489638597e-18
1.640255012027025e-18
1.598041056009153e-18
1.555905553272928e-18
1.513850435506306e-18
1.471877634397241e-18
1.429989081633689e-18
1.388186708903603e-18
1.346472447894948e-18
1.304848230295671e-18
1.263315987793717e-18
1.221877652077059e-18
1.180535154833651e-18
1.139290427751432e-18
1.098145402518374e-18
1.057102010822431e-18
1.016162184351542e-18
9.753278547936707e-19
9.346009538367796e-19
8.939834131688069e-19
8.534771644777253e-19
8.130841394514802e-19
7.728062697780366e-19
7.326454871453309e-19
6.926037232413359e-19
6.526829097539982e-19
6.128849783712631e-19
5.732118607811132e-19
5.336654886714762e-19
4.942477937303254e-19
4.549607076456064e-19
4.158061621052742e-19
3.767860887972840e-19
3.379024194095999e-19
2.991570856301584e-19
2.605520191469331e-19
2.220891516478695e-19
1.837704148209228e-19
1.455977403540573e-19
1.075730599352091e-19
6.969830525235220e-20
3.197540799343206e-20
-5.593700153590324e-21
-4.300708750076576e-20
-8.026282236014286e-20
-1.173589730437614e-19
-1.542936078636612e-19
-1.910647951318977e-19
-2.276706031605106e-19
-2.641091002615399e-19
-3.003783547470357e-19
-3.364764349290481e-19
-3.724014091196120e-19
-4.081513456307824e-19
-4.437243127745993e-19
-4.791183788631027e-19
-5.143316122083476e-19
-5.493620811223742e-19
-5.842078539172223e-19
-6.188669989049469e-19
-6.533375843975882e-19
-6.876176787071860e-19
-7.217053501457906e-19
-7.555986670254516e-19
-7.892956976582091e-19
-8.227945103561034e-19
-8.560931734311892e-19
-8.891897551955065e-19
-9.220823239610960e-19
-9.547689480400115e-19
-9.872476957442936e-19
-1.019516635385983e-18
-1.051573835277134e-18
-1.083417363729781e-18
-1.115045289055980e-18
-1.146455679567767e-18
-1.177646603577194e-18
-1.208616129396298e-18
-1.239362325337134e-18
-1.269883259711741e-18
-1.300177000832161e-18
-1.330241617010447e-18
-1.360075176558640e-18
-1.389675747788780e-18
-1.419041399012921e-18
-1.448170198543104e-18
-1.477060214691369e-18
-1.505709515769766e-18
-1.534116170090345e-18
-1.562278245965145e-18
-1.590193811706207e-18
-1.617860935625586e-18
-1.645277686035321e-18
-1.672442131247455e-18
-1.699352339574039e-18
-1.726006379327115e-18
-1.752402318818723e-18
-1.778538226360918e-18
-1.804412170265736e-18
-1.830022218845225e-18
-1.855366440411435e-18
-1.880442903276408e-18
-1.905249675752183e-18
-1.929784826150814e-18
-1.954046422784342e-18
-1.978032533964808e-18
-2.001741228004264e-18
-2.025170573214753e-18
-2.048318637908315e-18
-2.071183490397003e-18
-2.093763198992854e-18
-2.116055832007917e-18
-2.138059457754241e-18
-2.159772144543866e-18
-2.181191960688838e-18
-2.202316974501199e-18
-2.223145254293001e-18
-2.243674868376284e-18
-2.263903885063092e-18
-2.283830372665474e-18
-2.303452399495473e-18
-2.322768033865132e-18
-2.341775344086497e-18
-2.360472398471618e-18
-2.378857265332533e-18
-2.396928012981293e-18
-2.414682709729940e-18
-2.432119423890516e-18
-2.449236223775072e-18
-2.466031177695650e-18
-2.482502353964293e-18
-2.498647820893050e-18
-2.514465646793965e-18
-2.529953899979079e-18
-2.545110648760441e-18
-2.559933961450097e-18
-2.574421906360088e-18
-2.588572551802463e-18
-2.602383966089265e-18
-2.615854217532540e-18
-2.628981374444330e-18
-2.641763505136684e-18
-2.654198677921645e-18
-2.666284961111257e-18
-2.678020423017567e-18
-2.689403131952619e-18
-2.700431156228459e-18
-2.711102564157128e-18
-2.721415424050677e-18
-2.731367804221149e-18
-2.740957772980589e-18
-2.750183398641040e-18
-2.759042749514549e-18
-2.767533893913159e-18
-2.775654900148915e-18
-2.783403836533866e-18
-2.790778771380054e-18
-2.797777772999523e-18
-2.804398909704321e-18
-2.810640249806491e-18
-2.816499861618076e-18
-2.821975813451126e-18
-2.827066173617683e-18
-2.831769010429792e-18
-2.836082392199499e-18
-2.840004387238849e-18
-2.843533063859884e-18
-2.846666490374653e-18
-2.849402735095199e-18
-2.851739866333568e-18
-2.853675952401804e-18
-2.855209061611953e-18
-2.856337262276058e-18
-2.857058622706167e-18
-2.857371211214323e-18
-2.857273096112572e-18
-2.856762345712958e-18
-2.855837028327526e-18
-2.854495212268322e-18
-2.852734965847391e-18
-2.850554357376777e-18
-2.847951455168525e-18
-2.844924327534682e-18
-2.841471042787290e-18
-2.837589669238396e-18
-2.833278275200046e-18
-2.828534928984283e-18
-2.823357698903151e-18
-2.817744653268697e-18
-2.811693860392966e-18
-2.805203388588002e-18
-2.798271306165854e-18
-2.790895681438560e-18
-2.783074582718169e-18
-2.774806078316728e-18
-2.766088236546277e-18
-2.756919125718864e-18
-2.747296814146537e-18
-2.737219370141334e-18
-2.726684862015304e-18
-2.715691358080492e-18
-2.704236926648943e-18
-2.692319636032701e-18
-2.679937554543812e-18
-2.667088750494323e-18
-2.653771292196275e-18
-2.639983247961715e-18
-2.625722686102688e-18
-2.610987674931237e-18
-2.595776282759409e-18
-2.580086577899253e-18
-2.563916628662806e-18
-2.547264503362117e-18
-2.530128270309230e-18
-2.512505997816190e-18
-2.494395754195044e-18
-2.475795607757841e-18
-2.456703626816615e-18
-2.437117879683420e-18
-2.417036434670294e-18
-2.396457360089287e-18
-2.375378724252443e-18
-2.353798595471813e-18
-2.331715042059428e-18
-2.309126132327343e-18
-2.286029934587600e-18
-2.262424517152245e-18
-2.238307948333323e-18
-2.213678296442881e-18
-2.188533629792963e-18
-2.162872016695613e-18
-2.136691525462872e-18
-2.109990224406790e-18
-2.082766181839410e-18
-2.055017466072778e-18
-2.026742145418947e-18
-1.997938288189946e-18
-1.968603962697828e-18
-1.938737237254637e-18
-1.908336180172421e-18
-1.877398859763226e-18
-1.845923344339094e-18
-1.813907702212071e-18
-1.781350001694196e-18
-1.748248311097519e-18
-1.714600698734085e-18
-1.680405232915938e-18
-1.645659981955136e-18
-1.610363014163700e-18
-1.574512397853689e-18
-1.538106201337144e-18
-1.501142492926114e-18
-1.463619340932646e-18
-1.425534813668782e-18
-1.386886979446566e-18
-1.347673906578036e-18
-1.307893663375247e-18
-1.267544318150239e-18
-1.226623939215061e-18
-1.185130594881755e-18
-1.143062353462378e-18
-1.100417283268953e-18
-1.057193452613538e-18
-1.013388929808174e-18
-9.690017831649142e-19
-9.240300809957931e-19
-8.784718916128649e-19
-8.323252833281707e-19
-7.855883244537485e-19
-7.382590833016492e-19
-6.903356281839168e-19
-6.418160274125996e-19
-5.926983492997543e-19
-5.429806621573981e-19
-4.926610342975886e-19
-4.417375340323745e-19
-3.902082296738062e-19
-3.380711895339131e-19
-2.853244819247536e-19
-2.319661751583707e-19
-1.779943375467979e-19
-1.234070374020881e-19
-6.820234303628519e-20
-1.237832276143643e-20
4.406410367002152e-20
1.010991984133395e-19
1.586884449465035e-19
2.167932211385487e-19
2.753749048585265e-19
3.343948739754797e-19
3.938145063584761e-19
4.535951798765419e-19
5.136982723987617e-19
5.740851617941702e-19
6.347172259318185e-19
6.955558426807577e-19
7.565623899100391e-19
8.176982454886971e-19
8.789247872858166e-19
9.402033931704319e-19
1.001495441011595e-18
1.062762308678347e-18
1.123965374039757e-18
1.185066014964851e-18
1.246025609322715e-18
1.306805534982381e-18
1.367367169812902e-18
1.427671891683328e-18
1.487681078462711e-18
1.547356108020102e-18
1.606658358224536e-18
1.665549206945097e-18
1.723990032050820e-18
1.781942211410748e-18
1.839367122893948e-18
1.896226144369463e-18
1.952480653706329e-18
2.008092028773629e-18
2.063021647440397e-18
2.117230887575686e-18
2.170681127048547e-18
2.223333743728029e-18
2.275150115483172e-18
2.326091620183054e-18
2.376119635696712e-18
2.425195539893191e-18
2.473280710641555e-18
2.520336525810850e-18
2.566324363270113e-18
2.611205600888421e-18
2.654941616534813e-18
2.697493788078340e-18
2.738823493388053e-18
2.778892110333002e-18
2.817661016782236e-18
2.855091590604808e-18
2.891145209669773e-18
2.925783251846189e-18
2.958967095003089e-18
2.990658117009542e-18
3.020817695734583e-18
3.049407209047272e-18
3.076388034816658e-18
3.101721550911795e-18
3.125369135201739e-18
3.147292165555528e-18
3.167452019842226e-18
3.185810075930869e-18
3.202327711690526e-18
3.216966304990236e-18
3.229687233699058e-18
3.240451875686036e-18
3.249221608820227e-18
3.255957810970676e-18
3.260621860006441e-18
3.263175133796569e-18
3.263579010210112e-18
3.261794867116122e-18
3.257784082383651e-18
3.251508033881747e-18
3.242928099479467e-18
3.232005657045855e-18
3.218702084449967e-18
3.202978759560850e-18
3.184797060247562e-18
3.164118364379151e-18
3.140904049824668e-18