/*--------------------------------*- C++ -*----------------------------------*\
| =========                 |                                                 |
| \\      /  F ield         | OpenFOAM: The Open Source CFD Toolbox           |
|  \\    /   O peration     | Version:  5.x                                   |
|   \\  /    A nd           | Web:      www.OpenFOAM.org                      |
|    \\/     M anipulation  |                                                 |
\*---------------------------------------------------------------------------*/
FoamFile
{
    version     2.0;
    format      ascii;
    class       volScalarField;
    location    "0";
    object       H2;
}
// * * * * * * * * * * * * * * * * * * * * * * * * * * * * * * * * * * * * * //

dimensions      [0 0 0 0 0 0 0];

internalField   nonuniform List<scalar>
4830
(
2.851162289884357e-02
2.851162290818457e-02
2.851162291750318e-02
2.851162292679941e-02
2.851162293607329e-02
2.851162294532485e-02
2.851162295455411e-02
2.851162296376110e-02
2.851162297294584e-02
2.851162298210836e-02
2.851162299124868e-02
2.851162300036683e-02
2.851162300946283e-02
2.851162301853671e-02
2.851162302758850e-02
2.851162303661822e-02
2.851162304562590e-02
2.851162305461155e-02
2.851162306357521e-02
2.851162307251690e-02
2.851162308143665e-02
2.851162309033448e-02
2.851162309921041e-02
2.851162310806448e-02
2.851162311689671e-02
2.851162312570712e-02
2.851162313449574e-02
2.851162314326259e-02
2.851162315200770e-02
2.851162316073110e-02
2.851162316943281e-02
2.851162317811285e-02
2.851162318677125e-02
2.851162319540804e-02
2.851162320402324e-02
2.851162321261688e-02
2.851162322118897e-02
2.851162322973956e-02
2.851162323826865e-02
2.851162324677629e-02
2.851162325526249e-02
2.851162326372728e-02
2.851162327217068e-02
2.851162328059272e-02
2.851162328899342e-02
2.851162329737282e-02
2.851162330573093e-02
2.851162331406778e-02
2.851162332238339e-02
2.851162333067780e-02
2.851162333895102e-02
2.851162334720309e-02
2.851162335543402e-02
2.851162336364384e-02
2.851162337183259e-02
2.851162338000027e-02
2.851162338814693e-02
2.851162339627257e-02
2.851162340437724e-02
2.851162341246095e-02
2.851162342052373e-02
2.851162342856561e-02
2.851162343658661e-02
2.851162344458675e-02
2.851162345256606e-02
2.851162346052457e-02
2.851162346846231e-02
2.851162347637928e-02
2.851162348427554e-02
2.851162349215108e-02
2.851162350000596e-02
2.851162350784018e-02
2.851162351565377e-02
2.851162352344676e-02
2.851162353121918e-02
2.851162353897105e-02
2.851162354670239e-02
2.851162355441323e-02
2.851162356210360e-02
2.851162356977352e-02
2.851162357742302e-02
2.851162358505211e-02
2.851162359266084e-02
2.851162360024922e-02
2.851162360781727e-02
2.851162361536503e-02
2.851162362289252e-02
2.851162363039975e-02
2.851162363788677e-02
2.851162364535360e-02
2.851162365280025e-02
2.851162366022676e-02
2.851162366763314e-02
2.851162367501944e-02
2.851162368238566e-02
2.851162368973184e-02
2.851162369705800e-02
2.851162370436417e-02
2.851162371165037e-02
2.851162371891663e-02
2.851162372616298e-02
2.851162373338943e-02
2.851162374059601e-02
2.851162374778275e-02
2.851162375494968e-02
2.851162376209682e-02
2.851162376922419e-02
2.851162377633182e-02
2.851162378341974e-02
2.851162379048797e-02
2.851162379753653e-02
2.851162380456546e-02
2.851162381157477e-02
2.851162381856450e-02
2.851162382553466e-02
2.851162383248529e-02
2.851162383941640e-02
2.851162384632803e-02
2.851162385322020e-02
2.851162386009292e-02
2.851162386694624e-02
2.851162387378018e-02
2.851162388059476e-02
2.851162388739000e-02
2.851162389416593e-02
2.851162390092258e-02
2.851162390765996e-02
2.851162391437812e-02
2.851162392107707e-02
2.851162392775684e-02
2.851162393441745e-02
2.851162394105892e-02
2.851162394768129e-02
2.851162395428458e-02
2.851162396086881e-02
2.851162396743402e-02
2.851162397398022e-02
2.851162398050744e-02
2.851162398701570e-02
2.851162399350503e-02
2.851162399997546e-02
2.851162400642701e-02
2.851162401285971e-02
2.851162401927358e-02
2.851162402566865e-02
2.851162403204494e-02
2.851162403840248e-02
2.851162404474129e-02
2.851162405106140e-02
2.851162405736284e-02
2.851162406364563e-02
2.851162406990979e-02
2.851162407615535e-02
2.851162408238233e-02
2.851162408859077e-02
2.851162409478068e-02
2.851162410095209e-02
2.851162410710503e-02
2.851162411323952e-02
2.851162411935559e-02
2.851162412545326e-02
2.851162413153256e-02
2.851162413759352e-02
2.851162414363615e-02
2.851162414966048e-02
2.851162415566655e-02
2.851162416165437e-02
2.851162416762397e-02
2.851162417357538e-02
2.851162417950862e-02
2.851162418542371e-02
2.851162419132068e-02
2.851162419719956e-02
2.851162420306037e-02
2.851162420890314e-02
2.851162421472789e-02
2.851162422053466e-02
2.851162422632345e-02
2.851162423209430e-02
2.851162423784724e-02
2.851162424358229e-02
2.851162424929947e-02
2.851162425499881e-02
2.851162426068033e-02
2.851162426634407e-02
2.851162427199004e-02
2.851162427761827e-02
2.851162428322879e-02
2.851162428882163e-02
2.851162429439679e-02
2.851162429995433e-02
2.851162430549425e-02
2.851162431101658e-02
2.851162431652135e-02
2.851162432200859e-02
2.851162432747831e-02
2.851162433293055e-02
2.851162433836533e-02
2.851162434378268e-02
2.851162434918261e-02
2.851162435456516e-02
2.851162435993036e-02
2.851162436527821e-02
2.851162437060877e-02
2.851162437592203e-02
2.851162438121804e-02
2.851162438649682e-02
2.851162439175840e-02
2.851162439700278e-02
2.851162440223002e-02
2.851162440744012e-02
2.851162441263312e-02
2.851162441780904e-02
2.851162442296790e-02
2.851162442810973e-02
2.851162443323456e-02
2.851162443834241e-02
2.851162444343331e-02
2.851162444850728e-02
2.851162445356435e-02
2.851162445860454e-02
2.851162446362787e-02
2.851162446863438e-02
2.851162447362409e-02
2.851162447859702e-02
2.851162448355320e-02
2.851162448849266e-02
2.851162449341541e-02
2.851162449832149e-02
2.851162450321092e-02
2.851162450808373e-02
2.851162451293994e-02
2.851162451777957e-02
2.851162452260266e-02
2.851162452740922e-02
2.851162453219928e-02
2.851162453697288e-02
2.851162454173002e-02
2.851162454647075e-02
2.851162455119508e-02
2.851162455590303e-02
2.851162456059465e-02
2.851162456526994e-02
2.851162456992894e-02
2.851162457457166e-02
2.851162457919815e-02
2.851162458380841e-02
2.851162458840248e-02
2.851162459298038e-02
2.851162459754214e-02
2.851162460208779e-02
2.851162460661733e-02
2.851162461113082e-02
2.851162461562826e-02
2.851162462010968e-02
2.851162462457511e-02
2.851162462902458e-02
2.851162463345811e-02
2.851162463787572e-02
2.851162464227745e-02
2.851162464666330e-02
2.851162465103332e-02
2.851162465538753e-02
2.851162465972595e-02
2.851162466404860e-02
2.851162466835552e-02
2.851162467264672e-02
2.851162467692224e-02
2.851162468118210e-02
2.851162468542632e-02
2.851162468965492e-02
2.851162469386795e-02
2.851162469806541e-02
2.851162470224734e-02
2.851162470641375e-02
2.851162471056469e-02
2.851162471470016e-02
2.851162471882020e-02
2.851162472292483e-02
2.851162472701408e-02
2.851162473108797e-02
2.851162473514653e-02
2.851162473918979e-02
2.851162474321775e-02
2.851162474723047e-02
2.851162475122795e-02
2.851162475521023e-02
2.851162475917732e-02
2.851162476312926e-02
2.851162476706608e-02
2.851162477098778e-02
2.851162477489441e-02
2.851162477878599e-02
2.851162478266253e-02
2.851162478652407e-02
2.851162479037064e-02
2.851162479420225e-02
2.851162479801893e-02
2.851162480182072e-02
2.851162480560763e-02
2.851162480937968e-02
2.851162481313691e-02
2.851162481687934e-02
2.851162482060700e-02
2.851162482431990e-02
2.851162482801808e-02
2.851162483170156e-02
2.851162483537037e-02
2.851162483902453e-02
2.851162484266406e-02
2.851162484628900e-02
2.851162484989937e-02
2.851162485349518e-02
2.851162485707648e-02
2.851162486064328e-02
2.851162486419561e-02
2.851162486773349e-02
2.851162487125695e-02
2.851162487476602e-02
2.851162487826072e-02
2.851162488174107e-02
2.851162488520710e-02
2.851162488865884e-02
2.851162489209631e-02
2.851162489551954e-02
2.851162489892855e-02
2.851162490232336e-02
2.851162490570401e-02
2.851162490907052e-02
2.851162491242291e-02
2.851162491576121e-02
2.851162491908545e-02
2.851162492239564e-02
2.851162492569182e-02
2.851162492897400e-02
2.851162493224223e-02
2.851162493549651e-02
2.851162493873688e-02
2.851162494196336e-02
2.851162494517599e-02
2.851162494837476e-02
2.851162495155973e-02
2.851162495473091e-02
2.851162495788833e-02
2.851162496103201e-02
2.851162496416198e-02
2.851162496727827e-02
2.851162497038089e-02
2.851162497346988e-02
2.851162497654526e-02
2.851162497960705e-02
2.851162498265529e-02
2.851162498568999e-02
2.851162498871118e-02
2.851162499171889e-02
2.851162499471314e-02
2.851162499769396e-02
2.851162500066137e-02
2.851162500361540e-02
2.851162500655607e-02
2.851162500948341e-02
2.851162501239744e-02
2.851162501529820e-02
2.851162501818569e-02
2.851162502105997e-02
2.851162502392103e-02
2.851162502676891e-02
2.851162502960364e-02
2.851162503242524e-02
2.851162503523374e-02
2.851162503802916e-02
2.851162504081153e-02
2.851162504358087e-02
2.851162504633721e-02
2.851162504908057e-02
2.851162505181098e-02
2.851162505452846e-02
2.851162505723304e-02
2.851162505992475e-02
2.851162506260361e-02
2.851162506526964e-02
2.851162506792287e-02
2.851162507056333e-02
2.851162507319104e-02
2.851162507580603e-02
2.851162507840832e-02
2.851162508099793e-02
2.851162508357490e-02
2.851162508613924e-02
2.851162508869099e-02
2.851162509123017e-02
2.851162509375680e-02
2.851162509627091e-02
2.851162509877253e-02
2.851162510126167e-02
2.851162510373837e-02
2.851162510620266e-02
2.851162510865454e-02
2.851162511109406e-02
2.851162511352123e-02
2.851162511593609e-02
2.851162511833865e-02
2.851162512072895e-02
2.851162512310700e-02
2.851162512547284e-02
2.851162512782648e-02
2.851162513016796e-02
2.851162513249730e-02
2.851162513481452e-02
2.851162513711965e-02
2.851162513941272e-02
2.851162514169375e-02
2.851162514396276e-02
2.851162514621979e-02
2.851162514846485e-02
2.851162515069797e-02
2.851162515291918e-02
2.851162515512850e-02
2.851162515732596e-02
2.851162515951159e-02
2.851162516168540e-02
2.851162516384742e-02
2.851162516599769e-02
2.851162516813622e-02
2.851162517026304e-02
2.851162517237817e-02
2.851162517448164e-02
2.851162517657348e-02
2.851162517865371e-02
2.851162518072236e-02
2.851162518277945e-02
2.851162518482500e-02
2.851162518685905e-02
2.851162518888162e-02
2.851162519089273e-02
2.851162519289241e-02
2.851162519488068e-02
2.851162519685756e-02
2.851162519882310e-02
2.851162520077730e-02
2.851162520272020e-02
2.851162520465182e-02
2.851162520657219e-02
2.851162520848132e-02
2.851162521037925e-02
2.851162521226601e-02
2.851162521414161e-02
2.851162521600608e-02
2.851162521785945e-02
2.851162521970175e-02
2.851162522153299e-02
2.851162522335320e-02
2.851162522516242e-02
2.851162522696066e-02
2.851162522874794e-02
2.851162523052431e-02
2.851162523228977e-02
2.851162523404436e-02
2.851162523578810e-02
2.851162523752102e-02
2.851162523924313e-02
2.851162524095448e-02
2.851162524265508e-02
2.851162524434495e-02
2.851162524602413e-02
2.851162524769264e-02
2.851162524935049e-02
2.851162525099773e-02
2.851162525263437e-02
2.851162525426045e-02
2.851162525587598e-02
2.851162525748098e-02
2.851162525907549e-02
2.851162526065954e-02
2.851162526223314e-02
2.851162526379632e-02
2.851162526534911e-02
2.851162526689153e-02
2.851162526842361e-02
2.851162526994537e-02
2.851162527145683e-02
2.851162527295804e-02
2.851162527444900e-02
2.851162527592974e-02
2.851162527740030e-02
2.851162527886069e-02
2.851162528031094e-02
2.851162528175107e-02
2.851162528318112e-02
2.851162528460110e-02
2.851162528601105e-02
2.851162528741098e-02
2.851162528880092e-02
2.851162529018090e-02
2.851162529155094e-02
2.851162529291107e-02
2.851162529426132e-02
2.851162529560170e-02
2.851162529693225e-02
2.851162529825299e-02
2.851162529956394e-02
2.851162530086513e-02
2.851162530215659e-02
2.851162530343834e-02
2.851162530471040e-02
2.851162530597280e-02
2.851162530722558e-02
2.851162530846874e-02
2.851162530970233e-02
2.851162531092635e-02
2.851162531214084e-02
2.851162531334583e-02
2.851162531454133e-02
2.851162531572738e-02
2.851162531690400e-02
2.851162531807121e-02
2.851162531922904e-02
2.851162532037752e-02
2.851162532151667e-02
2.851162532264652e-02
2.851162532376708e-02
2.851162532487839e-02
2.851162532598048e-02
2.851162532707336e-02
2.851162532815707e-02
2.851162532923162e-02
2.851162533029705e-02
2.851162533135337e-02
2.851162533240062e-02
2.851162533343882e-02
2.851162533446799e-02
2.851162533548816e-02
2.851162533649937e-02
2.851162533750161e-02
2.851162533849494e-02
2.851162533947936e-02
2.851162534045492e-02
2.851162534142162e-02
2.851162534237951e-02
2.851162534332859e-02
2.851162534426890e-02
2.851162534520047e-02
2.851162534612331e-02
2.851162534703746e-02
2.851162534794294e-02
2.851162534883977e-02
2.851162534972798e-02
2.851162535060760e-02
2.851162535147865e-02
2.851162535234115e-02
2.851162535319514e-02
2.851162535404063e-02
2.851162535487765e-02
2.851162535570623e-02
2.851162535652640e-02
2.851162535733817e-02
2.851162535814157e-02
2.851162535893664e-02
2.851162535972339e-02
2.851162536050184e-02
2.851162536127203e-02
2.851162536203398e-02
2.851162536278772e-02
2.851162536353327e-02
2.851162536427065e-02
2.851162536499989e-02
2.851162536572102e-02
2.851162536643407e-02
2.851162536713904e-02
2.851162536783599e-02
2.851162536852491e-02
2.851162536920586e-02
2.851162536987884e-02
2.851162537054389e-02
2.851162537120102e-02
2.851162537185027e-02
2.851162537249166e-02
2.851162537312521e-02
2.851162537375095e-02
2.851162537436891e-02
2.851162537497912e-02
2.851162537558158e-02
2.851162537617634e-02
2.851162537676342e-02
2.851162537734284e-02
2.851162537791462e-02
2.851162537847880e-02
2.851162537903540e-02
2.851162537958444e-02
2.851162538012595e-02
2.851162538065996e-02
2.851162538118648e-02
2.851162538170555e-02
2.851162538221720e-02
2.851162538272143e-02
2.851162538321829e-02
2.851162538370779e-02
2.851162538418997e-02
2.851162538466484e-02
2.851162538513244e-02
2.851162538559278e-02
2.851162538604590e-02
2.851162538649181e-02
2.851162538693055e-02
2.851162538736214e-02
2.851162538778660e-02
2.851162538820396e-02
2.851162538861425e-02
2.851162538901748e-02
2.851162538941369e-02
2.851162538980291e-02
2.851162539018515e-02
2.851162539056044e-02
2.851162539092881e-02
2.851162539129028e-02
2.851162539164488e-02
2.851162539199263e-02
2.851162539233356e-02
2.851162539266769e-02
2.851162539299506e-02
2.851162539331567e-02
2.851162539362957e-02
2.851162539393677e-02
2.851162539423730e-02
2.851162539453119e-02
2.851162539481845e-02
2.851162539509913e-02
2.851162539537324e-02
2.851162539564080e-02
2.851162539590184e-02
2.851162539615640e-02
2.851162539640448e-02
2.851162539664613e-02
2.851162539688135e-02
2.851162539711019e-02
2.851162539733266e-02
2.851162539754879e-02
2.851162539775861e-02
2.851162539796213e-02
2.851162539815940e-02
2.851162539835042e-02
2.851162539853522e-02
2.851162539871385e-02
2.851162539888630e-02
2.851162539905262e-02
2.851162539921283e-02
2.851162539936695e-02
2.851162539951501e-02
2.851162539965703e-02
2.851162539979304e-02
2.851162539992306e-02
2.851162540004713e-02
2.851162540016525e-02
2.851162540027747e-02
2.851162540038381e-02
2.851162540048428e-02
2.851162540057893e-02
2.851162540066776e-02
2.851162540075081e-02
2.851162540082810e-02
2.851162540089966e-02
2.851162540096551e-02
2.851162540102568e-02
2.851162540108020e-02
2.851162540112908e-02
2.851162540117235e-02
2.851162540121005e-02
2.851162540124219e-02
2.851162540126881e-02
2.851162540128991e-02
2.851162540130554e-02
2.851162540131571e-02
2.851162540132046e-02
2.851162540131980e-02
2.851162540131377e-02
2.851162540130238e-02
2.851162540128566e-02
2.851162540126364e-02
2.851162540123635e-02
2.851162540120381e-02
2.851162540116603e-02
2.851162540112306e-02
2.851162540107492e-02
2.851162540102162e-02
2.851162540096320e-02
2.851162540089967e-02
2.851162540083108e-02
2.851162540075744e-02
2.851162540067877e-02
2.851162540059510e-02
2.851162540050647e-02
2.851162540041288e-02
2.851162540031438e-02
2.851162540021097e-02
2.851162540010270e-02
2.851162539998958e-02
2.851162539987164e-02
2.851162539974890e-02
2.851162539962139e-02
2.851162539948914e-02
2.851162539935217e-02
2.851162539921051e-02
2.851162539906418e-02
2.851162539891320e-02
2.851162539875761e-02
2.851162539859742e-02
2.851162539843266e-02
2.851162539826337e-02
2.851162539808956e-02
2.851162539791125e-02
2.851162539772848e-02
2.851162539754127e-02
2.851162539734964e-02
2.851162539715363e-02
2.851162539695325e-02
2.851162539674853e-02
2.851162539653949e-02
2.851162539632617e-02
2.851162539610858e-02
2.851162539588676e-02
2.851162539566072e-02
2.851162539543049e-02
2.851162539519611e-02
2.851162539495758e-02
2.851162539471495e-02
2.851162539446823e-02
2.851162539421745e-02
2.851162539396263e-02
2.851162539370380e-02
2.851162539344099e-02
2.851162539317422e-02
2.851162539290351e-02
2.851162539262890e-02
2.851162539235040e-02
2.851162539206804e-02
2.851162539178185e-02
2.851162539149186e-02
2.851162539119808e-02
2.851162539090054e-02
2.851162539059928e-02
2.851162539029430e-02
2.851162538998565e-02
2.851162538967334e-02
2.851162538935740e-02
2.851162538903786e-02
2.851162538871473e-02
2.851162538838806e-02
2.851162538805785e-02
2.851162538772414e-02
2.851162538738695e-02
2.851162538704631e-02
2.851162538670224e-02
2.851162538635477e-02
2.851162538600392e-02
2.851162538564972e-02
2.851162538529220e-02
2.851162538493137e-02
2.851162538456727e-02
2.851162538419992e-02
2.851162538382934e-02
2.851162538345556e-02
2.851162538307862e-02
2.851162538269852e-02
2.851162538231529e-02
2.851162538192897e-02
2.851162538153958e-02
2.851162538114714e-02
2.851162538075167e-02
2.851162538035321e-02
2.851162537995178e-02
2.851162537954740e-02
2.851162537914010e-02
2.851162537872990e-02
2.851162537831684e-02
2.851162537790093e-02
2.851162537748220e-02
2.851162537706068e-02
2.851162537663638e-02
2.851162537620934e-02
2.851162537577959e-02
2.851162537534714e-02
2.851162537491203e-02
2.851162537447427e-02
2.851162537403389e-02
2.851162537359093e-02
2.851162537314540e-02
2.851162537269732e-02
2.851162537224673e-02
2.851162537179365e-02
2.851162537133810e-02
2.851162537088012e-02
2.851162537041972e-02
2.851162536995694e-02
2.851162536949178e-02
2.851162536902429e-02
2.851162536855449e-02
2.851162536808240e-02
2.851162536760805e-02
2.851162536713146e-02
2.851162536665265e-02
2.851162536617167e-02
2.851162536568852e-02
2.851162536520323e-02
2.851162536471584e-02
2.851162536422636e-02
2.851162536373482e-02
2.851162536324124e-02
2.851162536274566e-02
2.851162536224809e-02
2.851162536174857e-02
2.851162536124711e-02
2.851162536074374e-02
2.851162536023849e-02
2.851162535973139e-02
2.851162535922245e-02
2.851162535871171e-02
2.851162535819918e-02
2.851162535768490e-02
2.851162535716889e-02
2.851162535665118e-02
2.851162535613178e-02
2.851162535561073e-02
2.851162535508805e-02
2.851162535456377e-02
2.851162535403791e-02
2.851162535351049e-02
2.851162535298155e-02
2.851162535245110e-02
2.851162535191918e-02
2.851162535138580e-02
2.851162535085100e-02
2.851162535031480e-02
2.851162534977722e-02
2.851162534923830e-02
2.851162534869804e-02
2.851162534815649e-02
2.851162534761366e-02
2.851162534706959e-02
2.851162534652428e-02
2.851162534597779e-02
2.851162534543011e-02
2.851162534488129e-02
2.851162534433135e-02
2.851162534378031e-02
2.851162534322820e-02
2.851162534267504e-02
2.851162534212086e-02
2.851162534156569e-02
2.851162534100954e-02
2.851162534045245e-02
2.851162533989444e-02
2.851162533933553e-02
2.851162533877576e-02
2.851162533821514e-02
2.851162533765370e-02
2.851162533709147e-02
2.851162533652847e-02
2.851162533596473e-02
2.851162533540028e-02
2.851162533483512e-02
2.851162533426931e-02
2.851162533370285e-02
2.851162533313577e-02
2.851162533256811e-02
2.851162533199988e-02
2.851162533143111e-02
2.851162533086183e-02
2.851162533029205e-02
2.851162532972181e-02
2.851162532915114e-02
2.851162532858005e-02
2.851162532800857e-02
2.851162532743673e-02
2.851162532686456e-02
2.851162532629207e-02
2.851162532571929e-02
2.851162532514625e-02
2.851162532457298e-02
2.851162532399950e-02
2.851162532342583e-02
2.851162532285200e-02
2.851162532227803e-02
2.851162532170396e-02
2.851162532112980e-02
2.851162532055558e-02
2.851162531998134e-02
2.851162531940708e-02
2.851162531883284e-02
2.851162531825864e-02
2.851162531768451e-02
2.851162531711048e-02
2.851162531653656e-02
2.851162531596279e-02
2.851162531538918e-02
2.851162531481577e-02
2.851162531424258e-02
2.851162531366964e-02
2.851162531309696e-02
2.851162531252458e-02
2.851162531195253e-02
2.851162531138082e-02
2.851162531080948e-02
2.851162531023854e-02
2.851162530966802e-02
2.851162530909795e-02
2.851162530852835e-02
2.851162530795925e-02
2.851162530739068e-02
2.851162530682265e-02
2.851162530625520e-02
2.851162530568835e-02
2.851162530512212e-02
2.851162530455655e-02
2.851162530399165e-02
2.851162530342745e-02
2.851162530286398e-02
2.851162530230126e-02
2.851162530173932e-02
2.851162530117818e-02
2.851162530061787e-02
2.851162530005841e-02
2.851162529949983e-02
2.851162529894215e-02
2.851162529838540e-02
2.851162529782961e-02
2.851162529727480e-02
2.851162529672099e-02
2.851162529616821e-02
2.851162529561649e-02
2.851162529506585e-02
2.851162529451631e-02
2.851162529396791e-02
2.851162529342067e-02
2.851162529287461e-02
2.851162529232975e-02
2.851162529178613e-02
2.851162529124376e-02
2.851162529070268e-02
2.851162529016291e-02
2.851162528962448e-02
2.851162528908740e-02
2.851162528855171e-02
2.851162528801743e-02
2.851162528748458e-02
2.851162528695320e-02
2.851162528642330e-02
2.851162528589492e-02
2.851162528536807e-02
2.851162528484278e-02
2.851162528431908e-02
2.851162528379700e-02
2.851162528327655e-02
2.851162528275777e-02
2.851162528224067e-02
2.851162528172529e-02
2.851162528121165e-02
2.851162528069978e-02
2.851162528018970e-02
2.851162527968143e-02
2.851162527917500e-02
2.851162527867044e-02
2.851162527816777e-02
2.851162527766701e-02
2.851162527716820e-02
2.851162527667136e-02
2.851162527617651e-02
2.851162527568368e-02
2.851162527519289e-02
2.851162527470417e-02
2.851162527421755e-02
2.851162527373305e-02
2.851162527325068e-02
2.851162527277050e-02
2.851162527229250e-02
2.851162527181673e-02
2.851162527134320e-02
2.851162527087195e-02
2.851162527040299e-02
2.851162526993635e-02
2.851162526947206e-02
2.851162526901015e-02
2.851162526855063e-02
2.851162526809354e-02
2.851162526763890e-02
2.851162526718673e-02
2.851162526673705e-02
2.851162526628991e-02
2.851162526584532e-02
2.851162526540330e-02
2.851162526496388e-02
2.851162526452709e-02
2.851162526409294e-02
2.851162526366148e-02
2.851162526323272e-02
2.851162526280668e-02
2.851162526238340e-02
2.851162526196290e-02
2.851162526154520e-02
2.851162526113033e-02
2.851162526071831e-02
2.851162526030918e-02
2.851162525990295e-02
2.851162525949964e-02
2.851162525909930e-02
2.851162525870193e-02
2.851162525830758e-02
2.851162525791625e-02
2.851162525752798e-02
2.851162525714279e-02
2.851162525676071e-02
2.851162525638176e-02
2.851162525600597e-02
2.851162525563336e-02
2.851162525526396e-02
2.851162525489780e-02
2.851162525453490e-02
2.851162525417528e-02
2.851162525381897e-02
2.851162525346599e-02
2.851162525311638e-02
2.851162525277015e-02
2.851162525242734e-02
2.851162525208796e-02
2.851162525175205e-02
2.851162525141962e-02
2.851162525109070e-02
2.851162525076532e-02
2.851162525044351e-02
2.851162525012528e-02
2.851162524981067e-02
2.851162524949970e-02
2.851162524919239e-02
2.851162524888878e-02
2.851162524858887e-02
2.851162524829271e-02
2.851162524800032e-02
2.851162524771171e-02
2.851162524742693e-02
2.851162524714598e-02
2.851162524686891e-02
2.851162524659572e-02
2.851162524632645e-02
2.851162524606113e-02
2.851162524579978e-02
2.851162524554242e-02
2.851162524528908e-02
2.851162524503978e-02
2.851162524479455e-02
2.851162524455342e-02
2.851162524431641e-02
2.851162524408355e-02
2.851162524385486e-02
2.851162524363036e-02
2.851162524341008e-02
2.851162524319406e-02
2.851162524298230e-02
2.851162524277485e-02
2.851162524257171e-02
2.851162524237293e-02
2.851162524217852e-02
2.851162524198851e-02
2.851162524180292e-02
2.851162524162179e-02
2.851162524144513e-02
2.851162524127297e-02
2.851162524110533e-02
2.851162524094225e-02
2.851162524078374e-02
2.851162524062984e-02
2.851162524048056e-02
2.851162524033593e-02
2.851162524019599e-02
2.851162524006074e-02
2.851162523993023e-02
2.851162523980447e-02
2.851162523968349e-02
2.851162523956731e-02
2.851162523945596e-02
2.851162523934947e-02
2.851162523924786e-02
2.851162523915116e-02
2.851162523905938e-02
2.851162523897257e-02
2.851162523889073e-02
2.851162523881390e-02
2.851162523874210e-02
2.851162523867537e-02
2.851162523861371e-02
2.851162523855717e-02
2.851162523850576e-02
2.851162523845950e-02
2.851162523841843e-02
2.851162523838258e-02
2.851162523835195e-02
2.851162523832659e-02
2.851162523830651e-02
2.851162523829175e-02
2.851162523828232e-02
2.851162523827825e-02
2.851162523827957e-02
2.851162523828630e-02
2.851162523829847e-02
2.851162523831611e-02
2.851162523833923e-02
2.851162523836786e-02
2.851162523840204e-02
2.851162523844178e-02
2.851162523848710e-02
2.851162523853805e-02
2.851162523859463e-02
2.851162523865688e-02
2.851162523872482e-02
2.851162523879848e-02
2.851162523887788e-02
2.851162523896305e-02
2.851162523905401e-02
2.851162523915078e-02
2.851162523925341e-02
2.851162523936189e-02
2.851162523947628e-02
2.851162523959658e-02
2.851162523972282e-02
2.851162523985504e-02
2.851162523999325e-02
2.851162524013748e-02
2.851162524028776e-02
2.851162524044411e-02
2.851162524060655e-02
2.851162524077512e-02
2.851162524094983e-02
2.851162524113071e-02
2.851162524131780e-02
2.851162524151111e-02
2.851162524171066e-02
2.851162524191649e-02
2.851162524212861e-02
2.851162524234707e-02
2.851162524257187e-02
2.851162524280304e-02
2.851162524304062e-02
2.851162524328462e-02
2.851162524353508e-02
2.851162524379201e-02
2.851162524405544e-02
2.851162524432540e-02
2.851162524460191e-02
2.851162524488500e-02
2.851162524517469e-02
2.851162524547101e-02
2.851162524577398e-02
2.851162524608363e-02
2.851162524639999e-02
2.851162524672308e-02
2.851162524705292e-02
2.851162524738954e-02
2.851162524773297e-02
2.851162524808323e-02
2.851162524844034e-02
2.851162524880434e-02
2.851162524917524e-02
2.851162524955308e-02
2.851162524993787e-02
2.851162525032964e-02
2.851162525072843e-02
2.851162525113425e-02
2.851162525154713e-02
2.851162525196708e-02
2.851162525239416e-02
2.851162525282836e-02
2.851162525326973e-02
2.851162525371828e-02
2.851162525417404e-02
2.851162525463704e-02
2.851162525510730e-02
2.851162525558485e-02
2.851162525606971e-02
2.851162525656190e-02
2.851162525706146e-02
2.851162525756841e-02
2.851162525808277e-02
2.851162525860457e-02
2.851162525913383e-02
2.851162525967059e-02
2.851162526021486e-02
2.851162526076667e-02
2.851162526132604e-02
2.851162526189301e-02
2.851162526246759e-02
2.851162526304981e-02
2.851162526363970e-02
2.851162526423728e-02
2.851162526484258e-02
2.851162526545563e-02
2.851162526607643e-02
2.851162526670504e-02
2.851162526734146e-02
2.851162526798573e-02
2.851162526863786e-02
2.851162526929790e-02
2.851162526996585e-02
2.851162527064174e-02
2.851162527132561e-02
2.851162527201747e-02
2.851162527271736e-02
2.851162527342529e-02
2.851162527414130e-02
2.851162527486540e-02
2.851162527559762e-02
2.851162527633795e-02
2.851162527708606e-02
2.851162527784144e-02
2.851162527860358e-02
2.851162527937197e-02
2.851162528014611e-02
2.851162528092549e-02
2.851162528170961e-02
2.851162528249795e-02
2.851162528329002e-02
2.851162528408530e-02
2.851162528488329e-02
2.851162528568348e-02
2.851162528648536e-02
2.851162528728844e-02
2.851162528809219e-02
2.851162528889613e-02
2.851162528969973e-02
2.851162529050249e-02
2.851162529130391e-02
2.851162529210348e-02
2.851162529290069e-02
2.851162529369504e-02
2.851162529448601e-02
2.851162529527311e-02
2.851162529605582e-02
2.851162529683365e-02
2.851162529760607e-02
2.851162529837260e-02
2.851162529913271e-02
2.851162529988590e-02
2.851162530063167e-02
2.851162530136951e-02
2.851162530209892e-02
2.851162530281938e-02
2.851162530353039e-02
2.851162530423144e-02
2.851162530492203e-02
2.851162530560165e-02
2.851162530626980e-02
2.851162530692596e-02
2.851162530756963e-02
2.851162530820031e-02
2.851162530881748e-02
2.851162530942064e-02
2.851162531000929e-02
2.851162531058292e-02
2.851162531114101e-02
2.851162531168307e-02
2.851162531220858e-02
2.851162531271705e-02
2.851162531320796e-02
2.851162531368081e-02
2.851162531413509e-02
2.851162531457030e-02
2.851162531498592e-02
2.851162531538145e-02
2.851162531575639e-02
2.851162531611023e-02
2.851162531644246e-02
2.851162531675257e-02
2.851162531704006e-02
2.851162531730442e-02
2.851162531754515e-02
2.851162531776174e-02
2.851162531795368e-02
2.851162531812046e-02
2.851162531826158e-02
2.851162531837653e-02
2.851162531846481e-02
2.851162531852591e-02
2.851162531855932e-02
2.851162531856454e-02
2.851162531854105e-02
2.851162531848836e-02
2.851162531840595e-02
2.851162531829332e-02
2.851162531814997e-02
2.851162531797538e-02
2.851162531776905e-02
2.851162531753047e-02
2.851162531725914e-02
2.851162531695455e-02
2.851162531661619e-02
2.851162531624356e-02
2.851162531583614e-02
2.851162531539345e-02
2.851162531491495e-02
2.851162531440016e-02
2.851162531384856e-02
2.851162531325965e-02
2.851162531263291e-02
2.851162531196786e-02
2.851162531126396e-02
2.851162531052073e-02
2.851162530973765e-02
2.851162530891422e-02
2.851162530804993e-02
2.851162530714427e-02
2.851162530619674e-02
2.851162530520684e-02
2.851162530417404e-02
2.851162530309785e-02
2.851162530197777e-02
2.851162530081328e-02
2.851162529960387e-02
2.851162529834905e-02
2.851162529704830e-02
2.851162529570112e-02
2.851162529430700e-02
2.851162529286543e-02
2.851162529137592e-02
2.851162528983794e-02
2.851162528825100e-02
2.851162528661459e-02
2.851162528492819e-02