/*--------------------------------*- C++ -*----------------------------------*\
| =========                 |                                                 |
| \\      /  F ield         | OpenFOAM: The Open Source CFD Toolbox           |
|  \\    /   O peration     | Version:  5.x                                   |
|   \\  /    A nd           | Web:      www.OpenFOAM.org                      |
|    \\/     M anipulation  |                                                 |
\*---------------------------------------------------------------------------*/
FoamFile
{
    version     2.0;
    format      ascii;
    class       volScalarField;
    location    "0";
    object       H2O;
}
// * * * * * * * * * * * * * * * * * * * * * * * * * * * * * * * * * * * * * //

dimensions      [0 0 0 0 0 0 0];

internalField   nonuniform List<scalar>
4830
(
-1.266544212560917e-11
-1.261566365707495e-11
-1.256600455424606e-11
-1.251646468214196e-11
-1.246704390578209e-11
-1.241774209018591e-11
-1.236855910037284e-11
-1.231949480136234e-11
-1.227054905817385e-11
-1.222172173582682e-11
-1.217301269934070e-11
-1.212442181373492e-11
-1.207594894402894e-11
-1.202759395524219e-11
-1.197935671239414e-11
-1.193123708050421e-11
-1.188323492459186e-11
-1.183535010967652e-11
-1.178758250077766e-11
-1.173993196291470e-11
-1.169239836110710e-11
-1.164498156037431e-11
-1.159768142573576e-11
-1.155049782221090e-11
-1.150343061481918e-11
-1.145647966858004e-11
-1.140964484851293e-11
-1.136292601963730e-11
-1.131632304697258e-11
-1.126983579553822e-11
-1.122346413035368e-11
-1.117720791643839e-11
-1.113106701881180e-11
-1.108504130249335e-11
-1.103913063250250e-11
-1.099333487385868e-11
-1.094765389158134e-11
-1.090208755068993e-11
-1.085663571620389e-11
-1.081129825314266e-11
-1.076607502652570e-11
-1.072096590137245e-11
-1.067597074270234e-11
-1.063108941553484e-11
-1.058632178488938e-11
-1.054166771578540e-11
-1.049712707324236e-11
-1.045269972227970e-11
-1.040838552791687e-11
-1.036418435517330e-11
-1.032009606906844e-11
-1.027612053462175e-11
-1.023225761685267e-11
-1.018850718078063e-11
-1.014486909142509e-11
-1.010134321380549e-11
-1.005792941294128e-11
-1.001462755385190e-11
-9.971437501556797e-12
-9.928359121075416e-12
-9.885392277427201e-12
-9.842536835631599e-12
-9.799792660708059e-12
-9.757159617676020e-12
-9.714637571554931e-12
-9.672226387364231e-12
-9.629925930123373e-12
-9.587736064851803e-12
-9.545656656568960e-12
-9.503687570294292e-12
-9.461828671047243e-12
-9.420079823847264e-12
-9.378440893713793e-12
-9.336911745666281e-12
-9.295492244724168e-12
-9.254182255906901e-12
-9.212981644233928e-12
-9.171890274724692e-12
-9.130908012398637e-12
-9.090034722275213e-12
-9.049270269373860e-12
-9.008614518714026e-12
-8.968067335315155e-12
-8.927628584196695e-12
-8.887298130378087e-12
-8.847075838878780e-12
-8.806961574718219e-12
-8.766955202915845e-12
-8.727056588491109e-12
-8.687265596463453e-12
-8.647582091852323e-12
-8.608005939677166e-12
-8.568537004957422e-12
-8.529175152712542e-12
-8.489920247961970e-12
-8.450772155725150e-12
-8.411730741021527e-12
-8.372795868870545e-12
-8.333967404291655e-12
-8.295245212304297e-12
-8.256629157927919e-12
-8.218119106181965e-12
-8.179714922085876e-12
-8.141416470659106e-12
-8.103223616921095e-12
-8.065136225891291e-12
-8.027154162589135e-12
-7.989277292034076e-12
-7.951505479245556e-12
-7.913838589243026e-12
-7.876276487045924e-12
-7.838819037673704e-12
-7.801466106145800e-12
-7.764217557481670e-12
-7.727073256700747e-12
-7.690033068822483e-12
-7.653096858866324e-12
-7.616264491851711e-12
-7.579535832798096e-12
-7.542910746724920e-12
-7.506389098651624e-12
-7.469970753597662e-12
-7.433655576582474e-12
-7.397443432625503e-12
-7.361334186746200e-12
-7.325327703964009e-12
-7.289423849298375e-12
-7.253622487768739e-12
-7.217923484394554e-12
-7.182326704195255e-12
-7.146832012190299e-12
-7.111439273399123e-12
-7.076148352841173e-12
-7.040959115535900e-12
-7.005871426502742e-12
-6.970885150761149e-12
-6.936000153330566e-12
-6.901216299230436e-12
-6.866533453480208e-12
-6.831951481099320e-12
-6.797470247107226e-12
-6.763089616523366e-12
-6.728809454367186e-12
-6.694629625658134e-12
-6.660549995415649e-12
-6.626570428659184e-12
-6.592690790408182e-12
-6.558910945682085e-12
-6.525230759500340e-12
-6.491650096882391e-12
-6.458168822847687e-12
-6.424786802415672e-12
-6.391503900605789e-12
-6.358319982437487e-12
-6.325234912930205e-12
-6.292248557103397e-12
-6.259360779976499e-12
-6.226571446568964e-12
-6.193880421900234e-12
-6.161287570989751e-12
-6.128792758856969e-12
-6.096395850521323e-12
-6.064096711002265e-12
-6.031895205319240e-12
-5.999791198491689e-12
-5.967784555539061e-12
-5.935875141480803e-12
-5.904062821336355e-12
-5.872347460125166e-12
-5.840728922866681e-12
-5.809207074580343e-12
-5.777781780285598e-12
-5.746452905001895e-12
-5.715220313748674e-12
-5.684083871545382e-12
-5.653043443411466e-12
-5.622098894366372e-12
-5.591250089429541e-12
-5.560496893620421e-12
-5.529839171958458e-12
-5.499276789463096e-12
-5.468809611153780e-12
-5.438437502049956e-12
-5.408160327171069e-12
-5.377977951536566e-12
-5.347890240165888e-12
-5.317897058078484e-12
-5.287998270293801e-12
-5.258193741831278e-12
-5.228483337710364e-12
-5.198866922950506e-12
-5.169344362571148e-12
-5.139915521591732e-12
-5.110580265031707e-12
-5.081338457910519e-12
-5.052189965247609e-12
-5.023134652062426e-12
-4.994172383374414e-12
-4.965303024203018e-12
-4.936526439567685e-12
-4.907842494487857e-12
-4.879251053982982e-12
-4.850751983072504e-12
-4.822345146775869e-12
-4.794030410112522e-12
-4.765807638101909e-12
-4.737676695763474e-12
-4.709637448116663e-12
-4.681689760180921e-12
-4.653833496975694e-12
-4.626068523520427e-12
-4.598394704834563e-12
-4.570811905937552e-12
-4.543319991848835e-12
-4.515918827587859e-12
-4.488608278174069e-12
-4.461388208626911e-12
-4.434258483965830e-12
-4.407218969210269e-12
-4.380269529379677e-12
-4.353410029493498e-12
-4.326640334571175e-12
-4.299960309632155e-12
-4.273369819695886e-12
-4.246868729781809e-12
-4.220456904909370e-12
-4.194134210098018e-12
-4.167900510367193e-12
-4.141755670736342e-12
-4.115699556224914e-12
-4.089732031852350e-12
-4.063852962638096e-12
-4.038062213601599e-12
-4.012359649762302e-12
-3.986745136139652e-12
-3.961218537753094e-12
-3.935779719622073e-12
-3.910428546766033e-12
-3.885164884204423e-12
-3.859988596956685e-12
-3.834899550042264e-12
-3.809897608480607e-12
-3.784982637291159e-12
-3.760154501493364e-12
-3.735413066106671e-12
-3.710758196150520e-12
-3.686189756644358e-12
-3.661707612607634e-12
-3.637311629059789e-12
-3.613001671020269e-12
-3.588777603508522e-12
-3.564639291543990e-12
-3.540586600146119e-12
-3.516619394334355e-12
-3.492737539128143e-12
-3.468940899546930e-12
-3.445229340610158e-12
-3.421602727337274e-12
-3.398060924747723e-12
-3.374603797860952e-12
-3.351231211696403e-12
-3.327943031273523e-12
-3.304739121611759e-12
-3.281619347730554e-12
-3.258583574649352e-12
-3.235631667387603e-12
-3.212763490964748e-12
-3.189978910400233e-12
-3.167277790713507e-12
-3.144659996924009e-12
-3.122125394051189e-12
-3.099673847114492e-12
-3.077305221133359e-12
-3.055019381127241e-12
-3.032816192115580e-12
-3.010695519117821e-12
-2.988657227153412e-12
-2.966701181241795e-12
-2.944827246402418e-12
-2.923035287654725e-12
-2.901325170018160e-12
-2.879696758512171e-12
-2.858149918156202e-12
-2.836684513969697e-12
-2.815300410972104e-12
-2.793997474182866e-12
-2.772775568621429e-12
-2.751634559307239e-12
-2.730574311259740e-12
-2.709594689498378e-12
-2.688695559042599e-12
-2.667876784911846e-12
-2.647138232125566e-12
-2.626479765703205e-12
-2.605901250664207e-12
-2.585402552028017e-12
-2.564983534814081e-12
-2.544644064041845e-12
-2.524384004730753e-12
-2.504203221900251e-12
-2.484101580569783e-12
-2.464078945758796e-12
-2.444135182486734e-12
-2.424270155773043e-12
-2.404483730637169e-12
-2.384775772098555e-12
-2.365146145176649e-12
-2.345594714890895e-12
-2.326121346260737e-12
-2.306725904305622e-12
-2.287408254044996e-12
-2.268168260498301e-12
-2.249005788684986e-12
-2.229920703624495e-12
-2.210912870336271e-12
-2.191982153839763e-12
-2.173128419154413e-12
-2.154351531299669e-12
-2.135651355294974e-12
-2.117027756159774e-12
-2.098480598913517e-12
-2.080009748575645e-12
-2.061615070165603e-12
-2.043296428702838e-12
-2.025053689206795e-12
-2.006886716696918e-12
-1.988795376192655e-12
-1.970779532713448e-12
-1.952839051278744e-12
-1.934973796907990e-12
-1.917183634620626e-12
-1.899468429436103e-12
-1.881828046373866e-12
-1.864262350453355e-12
-1.846771206694019e-12
-1.829354480115304e-12
-1.812012035736652e-12
-1.794743738577513e-12
-1.777549453657330e-12
-1.760429045995545e-12
-1.743382380611608e-12
-1.726409322524961e-12
-1.709509736755053e-12
-1.692683488321326e-12
-1.675930442243227e-12
-1.659250463540200e-12
-1.642643417231691e-12
-1.626109168337145e-12
-1.609647581876008e-12
-1.593258522867724e-12
-1.576941856331740e-12
-1.560697447287500e-12
-1.544525160754450e-12
-1.528424861752033e-12
-1.512396415299697e-12
-1.496439686416887e-12
-1.480554540123048e-12
-1.464740841437625e-12
-1.448998455380062e-12
-1.433327246969807e-12
-1.417727081226304e-12
-1.402197823168996e-12
-1.386739337817333e-12
-1.371351490190757e-12
-1.356034145308712e-12
-1.340787168190647e-12
-1.325610423856005e-12
-1.310503777324232e-12
-1.295467093614774e-12
-1.280500237747074e-12
-1.265603074740580e-12
-1.250775469614735e-12
-1.236017287388984e-12
-1.221328393082775e-12
-1.206708651715553e-12
-1.192157928306760e-12
-1.177676087875844e-12
-1.163262995442250e-12
-1.148918516025422e-12
-1.134642514644807e-12
-1.120434856319849e-12
-1.106295406069994e-12
-1.092224028914687e-12
-1.078220589873373e-12
-1.064284953965498e-12
-1.050416986210506e-12
-1.036616551627844e-12
-1.022883515236957e-12
-1.009217742057289e-12
-9.956190971082853e-13
-9.820874454093926e-13
-9.686226519800556e-13
-9.552245818397193e-13
-9.418931000078292e-13
-9.286280715038296e-13
-9.154293613471676e-13
-9.022968345572875e-13
-8.892303561536346e-13
-8.762297911556543e-13
-8.632950045827917e-13
-8.504258614544913e-13
-8.376222267902002e-13
-8.248839656093627e-13
-8.122109429314233e-13
-7.996030237758298e-13
-7.870600731620241e-13
-7.745819561094539e-13
-7.621685376375638e-13
-7.498196827657982e-13
-7.375352565136040e-13
-7.253151239004266e-13
-7.131591499457087e-13
-7.010671996688980e-13
-6.890391380894391e-13
-6.770748302267763e-13
-6.651741411003567e-13
-6.533369357296245e-13
-6.415630791340253e-13
-6.298524363330042e-13
-6.182048723460058e-13
-6.066202521924768e-13
-5.950984408918617e-13
-5.836393034636059e-13
-5.722427049271547e-13
-5.609085103019533e-13
-5.496365846074461e-13
-5.384267928630803e-13
-5.272790000883000e-13
-5.161930713025506e-13
-5.051688715252775e-13
-4.942062657759252e-13
-4.833051190739403e-13
-4.724652964387675e-13
-4.616866628898520e-13
-4.509690834466392e-13
-4.403124231285742e-13
-4.297165469551018e-13
-4.191813199456686e-13
-4.087066071197190e-13
-3.982922734966985e-13
-3.879381840960523e-13
-3.776442039372257e-13
-3.674101980396633e-13
-3.572360314228117e-13
-3.471215691061149e-13
-3.370666761090201e-13
-3.270712174509706e-13
-3.171350581514118e-13
-3.072580632297902e-13
-2.974400977055504e-13
-2.876810265981371e-13
-2.779807149269968e-13
-2.683390277115749e-13
-2.587558299713145e-13
-2.492309867256632e-13
-2.397643629940646e-13
-2.303558237959656e-13
-2.210052341508105e-13
-2.117124590780449e-13
-2.024773635971139e-13
-1.932998127274629e-13
-1.841796714885364e-13
-1.751168048997810e-13
-1.661110779806414e-13
-1.571623557505628e-13
-1.482705032289906e-13
-1.394353854353700e-13
-1.306568673891456e-13
-1.219348141097640e-13
-1.132690906166699e-13
-1.046595619293085e-13
-9.610609306712517e-14
-8.760854904956450e-14
-7.916679489607300e-14
-7.078069562609535e-14
-6.245011625907685e-14
-5.417492181446274e-14
-4.595497731169833e-14
-3.779014777022834e-14
-2.968029820949918e-14
-2.162529364895556e-14
-1.362499910804276e-14
-5.679279606206053e-15
2.211999837109817e-15
1.004897420245847e-14
1.783177847039519e-14
2.556054762147521e-14
3.323541663625166e-14
4.085652049528086e-14
4.842399417911752e-14
5.593797266831530e-14
6.339859094342945e-14
7.080598398501521e-14
7.816028677362576e-14
8.546163428981786e-14
9.271016151414468e-14
9.990600342716148e-14
1.070492950094235e-13
1.141401712414844e-13
1.211787671038994e-13
1.281652175772232e-13
1.350996576420107e-13
1.419822222788164e-13
1.488130464681956e-13
1.555922651907020e-13
1.623200134268909e-13
1.689964261573169e-13
1.756216383625348e-13
1.821957850230998e-13
1.887190011195656e-13
1.951914216324875e-13
2.016131815424201e-13
2.079844158299182e-13
2.143052594755365e-13
2.205758474598301e-13
2.267963147633529e-13
2.329667963666601e-13
2.390874272503064e-13
2.451583423948464e-13
2.511796767808354e-13
2.571515653888272e-13
2.630741431993769e-13
2.689475451930397e-13
2.747719063503691e-13
2.805473616519210e-13
2.862740460782501e-13
2.919520946099103e-13
2.975816422274569e-13
3.031628239114448e-13
3.086957746424276e-13
3.141806294009612e-13
3.196175231676004e-13
3.250065909228990e-13
3.303479676474126e-13
3.356417883216951e-13
3.408881879263016e-13
3.460873014417865e-13
3.512392638487055e-13
3.563442101276127e-13
3.614022752590622e-13
3.664135942236099e-13
3.713783020018096e-13
3.762965335742161e-13
3.811684239213849e-13
3.859941080238703e-13
3.907737208622262e-13
3.955073974170087e-13
4.001952726687715e-13
4.048374815980694e-13
4.094341591854579e-13
4.139854404114914e-13
4.184914602567242e-13
4.229523537017108e-13
4.273682557270066e-13
4.317393013131664e-13
4.360656254407439e-13
4.403473630902952e-13
4.445846492423743e-13
4.487776188775355e-13
4.529264069763342e-13
4.570311485193251e-13
4.610919784870622e-13
4.651090318601013e-13
4.690824436189966e-13
4.730123487443021e-13
4.768988822165735e-13
4.807421790163656e-13
4.845423741242322e-13
4.882996025207289e-13
4.920139991864101e-13
4.956856991018301e-13
4.993148372475442e-13
5.029015486041072e-13
5.064459681520730e-13
5.099482308719975e-13
5.134084717444346e-13
5.168268257499390e-13
5.202034278690655e-13
5.235384130823693e-13
5.268319163704047e-13
5.300840727137261e-13
5.332950170928892e-13
5.364648844884478e-13
5.395938098809565e-13
5.426819282509711e-13
5.457293745790457e-13
5.487362838457344e-13
5.517027910315931e-13
5.546290311171757e-13
5.575151390830369e-13
5.603612499097321e-13
5.631674985778156e-13
5.659340200678417e-13
5.686609493603659e-13
5.713484214359424e-13
5.739965712751261e-13
5.766055338584717e-13
5.791754441665340e-13
5.817064371798672e-13
5.841986478790269e-13
5.866522112445672e-13
5.890672622570430e-13
5.914439358970089e-13
5.937823671450200e-13
5.960826909816307e-13
5.983450423873955e-13
6.005695563428696e-13
6.027563678286073e-13
6.049056118251635e-13
6.070174233130932e-13
6.090919372729508e-13
6.111292886852908e-13
6.131296125306685e-13
6.150930437896382e-13
6.170197174427546e-13
6.189097684705727e-13
6.207633318536471e-13
6.225805425725324e-13
6.243615356077835e-13
6.261064459399550e-13
6.278154085496016e-13
6.294885584172781e-13
6.311260305235393e-13
6.327279598489396e-13
6.342944813740342e-13
6.358257300793773e-13
6.373218409455237e-13
6.387829489530287e-13
6.402091890824464e-13
6.416006963143318e-13
6.429576056292394e-13
6.442800520077241e-13
6.455681704303408e-13
6.468220958776436e-13
6.480419633301879e-13
6.492279077685282e-13
6.503800641732190e-13
6.514985675248151e-13
6.525835528038715e-13
6.536351549909425e-13
6.546535090665831e-13
6.556387500113481e-13
6.565910128057919e-13
6.575104324304695e-13
6.583971438659354e-13
6.592512820927443e-13
6.600729820914513e-13
6.608623788426110e-13
6.616196073267777e-13
6.623448025245066e-13
6.630380994163521e-13
6.636996329828690e-13
6.643295382046121e-13
6.649279500621361e-13
6.654950035359958e-13
6.660308336067457e-13
6.665355752549406e-13
6.670093634611354e-13
6.674523332058846e-13
6.678646194697430e-13
6.682463572332653e-13
6.685976814770062e-13
6.689187271815207e-13
6.692096293273630e-13
6.694705228950880e-13
6.697015428652508e-13
6.699028242184057e-13
6.700745019351075e-13
6.702167109959113e-13
6.703295863813711e-13
6.704132630720422e-13
6.704678760484790e-13
6.704935602912365e-13
6.704904507808692e-13
6.704586824979318e-13
6.703983904229791e-13
6.703097095365660e-13
6.701927748192470e-13
6.700477212515768e-13
6.698746838141101e-13
6.696737974874017e-13
6.694451972520064e-13
6.691890180884789e-13
6.689053949773740e-13
6.685944628992459e-13
6.682563568346499e-13
6.678912117641405e-13
6.674991626682723e-13
6.670803445276004e-13
6.666348923226792e-13
6.661629410340636e-13
6.656646256423079e-13
6.651400811279673e-13
6.645894424715964e-13
6.640128446537497e-13
6.634104226549824e-13
6.627823114558485e-13
6.621286460369034e-13
6.614495613787015e-13
6.607451924617976e-13
6.600156742667463e-13
6.592611417741027e-13
6.584817299644207e-13
6.576775738182559e-13
6.568488083161626e-13
6.559955684386955e-13
6.551179891664094e-13
6.542162054798590e-13
6.532903523595990e-13
6.523405647861843e-13
6.513669777401695e-13
6.503697262021093e-13
6.493489451525583e-13
6.483047695720713e-13
6.472373344412035e-13
6.461467747405085e-13
6.450332254505421e-13
6.438968215518586e-13
6.427376980250126e-13
6.415559898505590e-13
6.403518320090525e-13
6.391253594810475e-13
6.378767072470992e-13
6.366060102877623e-13
6.353134035835916e-13
6.339990221151410e-13
6.326630008629660e-13
6.313054748076209e-13
6.299265789296609e-13
6.285264482096404e-13
6.271052176281142e-13
6.256630221656368e-13
6.241999968027632e-13
6.227162765200479e-13
6.212119962980458e-13
6.196872911173117e-13
6.181422959584003e-13
6.165771458018660e-13
6.149919756282636e-13
6.133869204181481e-13
6.117621151520737e-13
6.101176948105958e-13
6.084537943742688e-13
6.067705488236475e-13
6.050680931392860e-13
6.033465623017402e-13
6.016060912915639e-13
5.998468150893121e-13
5.980688686755396e-13
5.962723870308011e-13
5.944575051356505e-13
5.926243579706443e-13
5.907730805163356e-13
5.889038077532796e-13
5.870166746620314e-13
5.851118162231453e-13
5.831893674171762e-13
5.812494632246786e-13
5.792922386262081e-13
5.773178286023183e-13
5.753263681335642e-13
5.733179922005009e-13
5.712928357836826e-13
5.692510338636643e-13
5.671927214210008e-13
5.651180334362467e-13
5.630271048899570e-13
5.609200707626857e-13
5.587970660349881e-13
5.566582256874192e-13
5.545036847005331e-13
5.523335780548851e-13
5.501480407310290e-13
5.479472077095204e-13
5.457312139709135e-13
5.435001944957631e-13
5.412542842646247e-13
5.389936182580515e-13
5.367183314566000e-13
5.344285588408235e-13
5.321244353912771e-13
5.298060960885155e-13
5.274736759130940e-13
5.251273098455667e-13
5.227671328664889e-13
5.203932799564146e-13
5.180058860958987e-13
5.156050862654958e-13
5.131910154457611e-13
5.107638086172500e-13
5.083236007605147e-13
5.058705268561127e-13
5.034047218845971e-13
5.009263208265232e-13
4.984354586624456e-13
4.959322703729188e-13
4.934168909384981e-13
4.908894553397380e-13
4.883500985571925e-13
4.857989555714172e-13
4.832361613629662e-13
4.806618509123947e-13
4.780761592002572e-13
4.754792212071085e-13
4.728711719135031e-13
4.702521462999966e-13
4.676222793471424e-13
4.649817060354958e-13
4.623305613456119e-13
4.596689802580448e-13
4.569970977533501e-13
4.543150488120812e-13
4.516229684147940e-13
4.489209915420422e-13
4.462092531743816e-13
4.434878882923659e-13
4.407570318765503e-13
4.380168189074900e-13
4.352673843657393e-13
4.325088632318529e-13
4.297413904863854e-13
4.269651011098912e-13
4.241801300829257e-13
4.213866123860431e-13
4.185846829997992e-13
4.157744769047464e-13
4.129561290814424e-13
4.101297745104395e-13
4.072955481722937e-13
4.044535850475594e-13
4.016040201167909e-13
3.987469883605444e-13
3.958826247593726e-13
3.930110642938312e-13
3.901324419444749e-13
3.872468926918582e-13
3.843545515165362e-13
3.814555533990638e-13
3.785500333199942e-13
3.756381262598845e-13
3.727199671992876e-13
3.697956911187587e-13
3.668654329988526e-13
3.639293278201250e-13
3.609875105631282e-13
3.580401162084198e-13
3.550872797365518e-13
3.521291361280805e-13
3.491658203635610e-13
3.461974674235468e-13
3.432242122885929e-13
3.402461899392551e-13
3.372635353560867e-13
3.342763835196429e-13
3.312848694104792e-13
3.282891280091495e-13
3.252892942962082e-13
3.222855032522111e-13
3.192778898577119e-13
3.162665890932660e-13
3.132517359394271e-13
3.102334653767515e-13
3.072119123857925e-13
3.041872119471058e-13
3.011594990412463e-13
2.981289086487668e-13
2.950955757502249e-13
2.920596353261727e-13
2.890212223571665e-13
2.859804718237598e-13
2.829375187065098e-13
2.798924979859674e-13
2.768455446426907e-13
2.737967936572324e-13
2.707463800101483e-13
2.676944386819925e-13
2.646411046533203e-13
2.615865129046854e-13
2.585307984166441e-13
2.554740961697505e-13
2.524165411445579e-13
2.493582683216225e-13
2.462994126814990e-13
2.432401092047411e-13
2.401804928719051e-13
2.371206986635442e-13
2.340608615602145e-13
2.310011165424693e-13
2.279415985908639e-13
2.248824426859534e-13
2.218237838082930e-13
2.187657569384355e-13
2.157084970569371e-13
2.126521391443526e-13
2.095968181812356e-13
2.065426691481419e-13
2.034898270256256e-13
2.004384267942421e-13
1.973886034345459e-13
1.943404919270909e-13
1.912942272524322e-13
1.882499443911257e-13
1.852077783237244e-13
1.821678640307846e-13
1.791303364928595e-13
1.760953306905044e-13
1.730629816042745e-13
1.700334242147245e-13
1.670067935024080e-13
1.639832244478804e-13
1.609628520316969e-13
1.579458112344121e-13
1.549322370365803e-13
1.519222644187562e-13
1.489160283614950e-13
1.459136638453510e-13
1.429153058508788e-13
1.399210893586342e-13
1.369311493491699e-13
1.339456208030421e-13
1.309646387008056e-13
1.279883380230145e-13
1.250168537502236e-13
1.220503208629881e-13
1.190888743418623e-13
1.161326491674007e-13
1.131817803201587e-13
1.102364027806910e-13
1.072966515295513e-13
1.043626615472952e-13
1.014345678144772e-13
9.851250531165170e-14
9.559660901937414e-14
9.268701391819866e-14
8.978385498867996e-14
8.688726721137334e-14
8.399738556683292e-14
8.111434503561345e-14
7.823828059827078e-14
7.536932723535791e-14
7.250761992743074e-14
6.965329365504279e-14
6.680648339874994e-14
6.396732413910696e-14
6.113595085666734e-14
5.831249853198759e-14
5.549710214562066e-14
5.268989667812245e-14
4.989101711004767e-14
4.710059842194986e-14
4.431877559438493e-14
4.154568360790759e-14
3.878145744307138e-14
3.602623208043222e-14
3.328014250054479e-14
3.054332368396266e-14
2.781591061124172e-14
2.509803826293669e-14
2.238984161960109e-14
1.969145566179086e-14
1.700301537006008e-14
1.432465572496411e-14
1.165651170705705e-14
8.998718296894225e-15
6.351410475029746e-15
3.714723222018332e-15
1.088791518414809e-15
-1.526249655225630e-15
-4.130265318349002e-15
-6.723120490400221e-15
-9.304680190824209e-15
-1.187480943906697e-14
-1.443337325457342e-14
-1.698023665678848e-14
-1.951526466515780e-14
-2.203832229912701e-14
-2.454927457814068e-14
-2.704798652164479e-14
-2.953432314908428e-14
-3.200814947990408e-14
-3.446933053355016e-14
-3.691773132946746e-14
-3.935321688710091e-14
-4.177565222589649e-14
-4.418490236529913e-14
-4.658083232475377e-14
-4.896330712370604e-14
-5.133219178160154e-14
-5.368735131788522e-14
-5.602865075200205e-14
-5.835595510339794e-14
-6.066912939151785e-14
-6.296803863580676e-14
-6.525254785571057e-14
-6.752252207067425e-14
-6.977782630014276e-14
-7.201832556356201e-14
-7.424388488037667e-14
-7.645436927003264e-14
-7.864964375197456e-14
-8.082957334564834e-14
-8.299402307049865e-14
-8.514285794597138e-14
-8.727594299151150e-14
-8.939314322656401e-14
-9.149432367057477e-14
-9.357934934298877e-14
-9.564808526325099e-14
-9.770039645080729e-14
-9.973614792510269e-14
-1.017552047055822e-13
-1.037574318116913e-13
-1.057426942628756e-13
-1.077108570785801e-13
-1.096617852782498e-13
-1.115953438813306e-13
-1.135113979072674e-13
-1.154098123755053e-13
-1.172904523054900e-13
-1.191531827166666e-13
-1.209978686284802e-13
-1.228243750603764e-13
-1.246325670318002e-13
-1.264223095621969e-13
-1.281934676710121e-13
-1.299459063776910e-13
-1.316794907016785e-13
-1.333940856624203e-13
-1.350895562793616e-13
-1.367657675719473e-13
-1.384225845596232e-13
-1.400598722618344e-13
-1.416774956980259e-13
-1.432753198876434e-13
-1.448532098501318e-13
-1.464110306049366e-13
-1.479486471715033e-13
-1.494659245692769e-13
-1.509627278177028e-13
-1.524389219362259e-13
-1.538943719442920e-13
-1.553289428613462e-13
-1.567424997068336e-13
-1.581349075001997e-13
-1.595060312608898e-13
-1.608557360083489e-13
-1.621838867620224e-13
-1.634903485413559e-13
-1.647749863657942e-13
-1.660376652547830e-13
-1.672782502277675e-13
-1.684966063041925e-13
-1.696925985035040e-13
-1.708660918451469e-13
-1.720169513485663e-13
-1.731450420332079e-13
-1.742502289185167e-13
-1.753323770239380e-13
-1.763913513689171e-13
-1.774270169728995e-13
-1.784392388553301e-13
-1.794278820356546e-13
-1.803928115333180e-13
-1.813338923677657e-13
-1.822509895584427e-13
-1.831439681247947e-13
-1.840126930862668e-13
-1.848570294623041e-13
-1.856768422723521e-13
-1.864719965358560e-13
-1.872423572722613e-13
-1.879877895010127e-13
-1.887081582415562e-13
-1.894033285133368e-13
-1.900731653357996e-13
-1.907175337283901e-13
-1.913362987105534e-13
-1.919293253017349e-13
-1.924964785213798e-13
-1.930376233889335e-13
-1.935526249238412e-13
-1.940413481455482e-13
-1.945036580734998e-13
-1.949394197271412e-13
-1.953484981259177e-13
-1.957307582892747e-13
-1.960860652366575e-13
-1.964142839875112e-13
-1.967152795612812e-13
-1.969889169774126e-13
-1.972350612553509e-13
-1.974535774145414e-13
-1.976443304744292e-13
-1.978071854544596e-13
-1.979420073740781e-13
-1.980486612527297e-13
-1.981270121098599e-13
-1.981769249649139e-13
-1.981982648373369e-13
-1.981908967465742e-13
-1.981546857120712e-13
-1.980894967532731e-13
-1.979951948896253e-13
-1.978716451405729e-13
-1.977187125255612e-13
-1.975362620640356e-13
-1.973241587754413e-13
-1.970822676792236e-13
-1.968104537948278e-13
-1.965085821416992e-13
-1.961765177392829e-13
-1.958141256070244e-13
-1.954212707643689e-13
-1.949978182307617e-13
-1.945436330256480e-13
-1.940585801684733e-13
-1.935425246786826e-13
-1.929953315757213e-13
-1.924168658790348e-13
-1.918069926080681e-13
-1.911655767822667e-13
-1.904924834210760e-13
-1.897875775439409e-13
-1.890507241703070e-13
-1.882817883196194e-13
-1.874806350113234e-13
-1.866471292648644e-13
-1.857811360996876e-13
-1.848825205352385e-13
-1.839511475909619e-13
-1.829868822863036e-13
-1.819895896407084e-13
-1.809591346736219e-13
-1.798953824044892e-13
-1.787981978527561e-13
-1.776674460378671e-13
-1.765029919792678e-13
-1.753047006964036e-13
-1.740724372087196e-13
-1.728060665356613e-13
-1.715054536966741e-13
-1.701704637112028e-13
-1.688009615986930e-13
-1.673968123785898e-13
-1.659578810703386e-13
-1.644840326933846e-13
-1.629751322671736e-13
-1.614310448111500e-13
-1.598516353447595e-13
-1.582367688874474e-13
-1.565863104586590e-13
-1.549001250778394e-13
-1.531780777644345e-13
-1.514200335378889e-13
-1.496258574176483e-13
-1.477954144231574e-13
-1.459285695738620e-13
-1.440251878892070e-13
-1.420851343886380e-13
-1.401082740916008e-13
-1.380944720175395e-13
-1.360435931859001e-13
-1.339555026161276e-13
-1.318300653276674e-13
-1.296671463399651e-13
-1.274666106724657e-13
-1.252283233446145e-13
-1.229521493758565e-13
-1.206379537856372e-13
-1.182856015934018e-13
-1.158949578185958e-13
-1.134658874806649e-13
-1.109982555990533e-13
-1.084919271932068e-13
-1.059467672825707e-13
-1.033626408865903e-13
-1.007394130247112e-13
-9.807694871637836e-14
-9.537511298103711e-14
-9.263377083813222e-14
-8.985278730710952e-14
-8.703202740741415e-14
-8.417135615849145e-14
-8.127063857978665e-14
-7.832973969074583e-14
-7.534852451081280e-14
-7.232685805943350e-14
-6.926460535605329e-14
-6.616163142011791e-14
-6.301780127107164e-14
-5.983297992836063e-14
-5.660703241142990e-14
-5.333982373972419e-14
-5.003121893268919e-14
-4.668108300977030e-14
-4.328928099041261e-14
-3.985567789406251e-14
-3.638013874016340e-14
-3.286252854816132e-14
-2.930271233750162e-14
-2.570055512763031e-14
-2.205592193799137e-14
-1.836867778803132e-14
-1.463868769719470e-14
-1.086581668492651e-14
-7.049929770672222e-15
-3.190891973877511e-15
7.114316860125737e-16
4.656976884520467e-15
8.643944605220997e-15
1.266964264988131e-14
1.673137143859741e-14
2.082643139146642e-14
2.495212292858486e-14
2.910574647005101e-14
3.328460243596023e-14
3.748599124641198e-14
4.170721332150220e-14
4.594556908132801e-14
5.019835894598651e-14
5.446288333557483e-14
5.873644267018888e-14
6.301633736992818e-14
6.729986785488863e-14
7.158433454516734e-14
7.586703786086084e-14
8.014527822206745e-14
8.441635604888246e-14
8.867757176140540e-14
9.292622577973219e-14
9.715961852395992e-14
1.013750504141857e-13
1.055698218705067e-13
1.097412333130200e-13
1.138865851618215e-13
1.180031778370107e-13
1.220883117586836e-13
1.261392873469366e-13
1.301534050218681e-13
1.341279652035745e-13
1.380602683121520e-13
1.419476147676998e-13
1.457873049903139e-13
1.495766394000914e-13
1.533129184171295e-13
1.569934424615252e-13
1.606155119533747e-13
1.641764273127771e-13
1.676734889598286e-13
1.711039973146256e-13
1.744652527972664e-13
1.777545558278475e-13
1.809692068264652e-13
1.841065062132184e-13
1.871637544082033e-13
1.901382518315169e-13
1.930272989032565e-13
1.958281960435192e-13
1.985382436724015e-13
2.011547422100012e-13
2.036749920764153e-13
2.060962936917415e-13
2.084159474760757e-13
2.106312538495162e-13
2.127395132321590e-13
2.147380260441017e-13
2.166240927054415e-13
2.183950136362755e-13
2.200480892567013e-13
2.215806199868150e-13
2.229899062467146e-13
2.242732484564962e-13
2.254279470362582e-13
2.264513024060967e-13
2.273406149861095e-13
2.280931851963931e-13
2.287063134570451e-13
2.291773001881622e-13
2.295034458098420e-13
2.296820507421812e-13
2.297104154052771e-13
2.295858402192267e-13
2.293056256041274e-13
2.288670719800758e-13
2.282674797671697e-13
2.275041493855055e-13
2.265743812551808e-13
2.254754757962924e-13
2.242047334289378e-13
2.227594545732140e-13
2.211369396492179e-13