/*--------------------------------*- C++ -*----------------------------------*\
| =========                 |                                                 |
| \\      /  F ield         | OpenFOAM: The Open Source CFD Toolbox           |
|  \\    /   O peration     | Version:  5.x                                   |
|   \\  /    A nd           | Web:      www.OpenFOAM.org                      |
|    \\/     M anipulation  |                                                 |
\*---------------------------------------------------------------------------*/
FoamFile
{
    version     2.0;
    format      ascii;
    class       volScalarField;
    location    "0";
    object       H2O2;
}
// * * * * * * * * * * * * * * * * * * * * * * * * * * * * * * * * * * * * * //

dimensions      [0 0 0 0 0 0 0];

internalField   nonuniform List<scalar>
4830
(
-5.961849607754740e-13
-5.938421230727843e-13
-5.915049033932894e-13
-5.891732953840462e-13
-5.868472926921123e-13
-5.845268889645445e-13
-5.822120778484005e-13
-5.799028529907372e-13
-5.775992080386116e-13
-5.753011366390815e-13
-5.730086324392037e-13
-5.707216890860356e-13
-5.684403002266342e-13
-5.661644595080568e-13
-5.638941605773608e-13
-5.616293970816030e-13
-5.593701626678410e-13
-5.571164509831319e-13
-5.548682556745330e-13
-5.526255703891011e-13
-5.503883887738938e-13
-5.481567044759683e-13
-5.459305111423817e-13
-5.437098024201911e-13
-5.414945719564540e-13
-5.392848133982274e-13
-5.370805203925686e-13
-5.348816865865348e-13
-5.326883056271833e-13
-5.305003711615709e-13
-5.283178768367553e-13
-5.261408162997936e-13
-5.239691831977428e-13
-5.218029711776603e-13
-5.196421738866032e-13
-5.174867849716290e-13
-5.153367980797943e-13
-5.131922068581570e-13
-5.110530049537739e-13
-5.089191860137025e-13
-5.067907436849994e-13
-5.046676716147224e-13
-5.025499634499289e-13
-5.004376128376755e-13
-4.983306134250196e-13
-4.962289588590184e-13
-4.941326427867294e-13
-4.920416588552096e-13
-4.899560007115162e-13
-4.878756620027064e-13
-4.858006363758373e-13
-4.837309174779663e-13
-4.816664989561507e-13
-4.796073744574475e-13
-4.775535376289141e-13
-4.755049821176072e-13
-4.734617015705847e-13
-4.714236896349036e-13
-4.693909399576210e-13
-4.673634461857940e-13
-4.653412019664798e-13
-4.633242009467362e-13
-4.613124367736196e-13
-4.593059030941878e-13
-4.573045935554977e-13
-4.553085018046064e-13
-4.533176214885717e-13
-4.513319462544502e-13
-4.493514697492994e-13
-4.473761856201765e-13
-4.454060875141385e-13
-4.434411690782429e-13
-4.414814239595468e-13
-4.395268458051073e-13
-4.375774282619818e-13
-4.356331649772274e-13
-4.336940495979012e-13
-4.317600757710605e-13
-4.298312371437627e-13
-4.279075273630649e-13
-4.259889400760242e-13
-4.240754689296978e-13
-4.221671075711431e-13
-4.202638496474171e-13
-4.183656888055773e-13
-4.164726186926806e-13
-4.145846329557843e-13
-4.127017252419457e-13
-4.108238891982219e-13
-4.089511184716703e-13
-4.070834067093479e-13
-4.052207475583120e-13
-4.033631346656197e-13
-4.015105616783284e-13
-3.996630222434953e-13
-3.978205100081775e-13
-3.959830186194322e-13
-3.941505417243166e-13
-3.923230729698881e-13
-3.905006060032037e-13
-3.886831344713208e-13
-3.868706520212964e-13
-3.850631523001878e-13
-3.832606289550523e-13
-3.814630756329470e-13
-3.796704859809292e-13
-3.778828536460560e-13
-3.761001722753846e-13
-3.743224355159724e-13
-3.725496370148764e-13
-3.707817704191540e-13
-3.690188293758623e-13
-3.672608075320584e-13
-3.655076985347999e-13
-3.637594960311435e-13
-3.620161936681467e-13
-3.602777850928668e-13
-3.585442639523607e-13
-3.568156238936859e-13
-3.550918585638994e-13
-3.533729616100587e-13
-3.516589266792207e-13
-3.499497474184428e-13
-3.482454174747820e-13
-3.465459304952958e-13
-3.448512801270414e-13
-3.431614600170756e-13
-3.414764638124559e-13
-3.397962851602398e-13
-3.381209177074839e-13
-3.364503551012459e-13
-3.347845909885828e-13
-3.331236190165517e-13
-3.314674328322103e-13
-3.298160260826152e-13
-3.281693924148239e-13
-3.265275254758937e-13
-3.248904189128817e-13
-3.232580663728451e-13
-3.216304615028410e-13
-3.200075979499268e-13
-3.183894693611597e-13
-3.167760693835969e-13
-3.151673916642955e-13
-3.135634298503127e-13
-3.119641775887058e-13
-3.103696285265321e-13
-3.087797763108487e-13
-3.071946145887128e-13
-3.056141370071816e-13
-3.040383372133124e-13
-3.024672088541624e-13
-3.009007455767887e-13
-2.993389410282487e-13
-2.977817888555993e-13
-2.962292827058981e-13
-2.946814162262019e-13
-2.931381830635683e-13
-2.915995768650542e-13
-2.900655912777170e-13
-2.885362199486140e-13
-2.870114565248021e-13
-2.854912946533387e-13
-2.839757279812810e-13
-2.824647501556862e-13
-2.809583548236115e-13
-2.794565356321142e-13
-2.779592862282515e-13
-2.764666002590804e-13
-2.749784713716584e-13
-2.734948932130424e-13
-2.720158594302899e-13
-2.705413636704578e-13
-2.690713995806038e-13
-2.676059608077846e-13
-2.661450409990577e-13
-2.646886338014802e-13
-2.632367328621094e-13
-2.617893318280024e-13
-2.603464243462165e-13
-2.589080040638089e-13
-2.574740646278368e-13
-2.560445996853573e-13
-2.546196028834278e-13
-2.531990678691054e-13
-2.517829882894474e-13
-2.503713577915109e-13
-2.489641700223531e-13
-2.475614186290314e-13
-2.461630972586028e-13
-2.447691995581246e-13
-2.433797191746540e-13
-2.419946497552482e-13
-2.406139849469644e-13
-2.392377183968600e-13
-2.378658437519919e-13
-2.364983546594174e-13
-2.351352447661938e-13
-2.337765077193784e-13
-2.324221371660282e-13
-2.310721267532005e-13
-2.297264701279526e-13
-2.283851609373416e-13
-2.270481928284246e-13
-2.257155594482591e-13
-2.243872544439021e-13
-2.230632714624109e-13
-2.217436041508426e-13
-2.204282461562546e-13
-2.191171911257039e-13
-2.178104327062479e-13
-2.165079645449437e-13
-2.152097802888485e-13
-2.139158735850195e-13
-2.126262380805141e-13
-2.113408674223893e-13
-2.100597552577024e-13
-2.087828952335106e-13
-2.075102809968710e-13
-2.062419061948410e-13
-2.049777644744777e-13
-2.037178494828384e-13
-2.024621548669801e-13
-2.012106742739604e-13
-1.999634013508360e-13
-1.987203297446645e-13
-1.974814531025031e-13
-1.962467650714087e-13
-1.950162592984388e-13
-1.937899294306506e-13
-1.925677691151012e-13
-1.913497719988477e-13
-1.901359317289477e-13
-1.889262419524580e-13
-1.877206963164360e-13
-1.865192884679389e-13
-1.853220120540239e-13
-1.841288607217483e-13
-1.829398281181692e-13
-1.817549078903437e-13
-1.805740936853293e-13
-1.793973791501830e-13
-1.782247579319620e-13
-1.770562236777237e-13
-1.758917700345252e-13
-1.747313906494236e-13
-1.735750791694762e-13
-1.724228292417403e-13
-1.712746345132731e-13
-1.701304886311316e-13
-1.689903852423732e-13
-1.678543179940551e-13
-1.667222805332345e-13
-1.655942665069686e-13
-1.644702695623145e-13
-1.633502833463296e-13
-1.622343015060710e-13
-1.611223176885959e-13
-1.600143255409616e-13
-1.589103187102253e-13
-1.578102908434441e-13
-1.567142355876752e-13
-1.556221465899761e-13
-1.545340174974036e-13
-1.534498419570152e-13
-1.523696136158681e-13
-1.512933261210193e-13
-1.502209731195262e-13
-1.491525482584460e-13
-1.480880451848358e-13
-1.470274575457529e-13
-1.459707789882546e-13
-1.449180031593978e-13
-1.438691237062401e-13
-1.428241342758385e-13
-1.417830285152501e-13
-1.407458000715323e-13
-1.397124425917423e-13
-1.386829497229373e-13
-1.376573151121744e-13
-1.366355324065109e-13
-1.356175952530041e-13
-1.346034972987110e-13
-1.335932321906890e-13
-1.325867935759952e-13
-1.315841751016868e-13
-1.305853704148211e-13
-1.295903731624553e-13
-1.285991769916465e-13
-1.276117755494521e-13
-1.266281624829292e-13
-1.256483314391349e-13
-1.246722760651266e-13
-1.236999900079614e-13
-1.227314669146966e-13
-1.217667004323893e-13
-1.208056842080968e-13
-1.198484118888763e-13
-1.188948771217850e-13
-1.179450735538801e-13
-1.169989948322187e-13
-1.160566346038582e-13
-1.151179865158557e-13
-1.141830442152685e-13
-1.132518013491538e-13
-1.123242515645687e-13
-1.114003885085705e-13
-1.104802058282164e-13
-1.095636971705635e-13
-1.086508561826693e-13
-1.077416765115907e-13
-1.068361518043850e-13
-1.059342757081096e-13
-1.050360418698215e-13
-1.041414439365778e-13
-1.032504755554361e-13
-1.023631303734532e-13
-1.014794020376867e-13
-1.005992841951935e-13
-9.972277049303088e-14
-9.884985457825625e-14
-9.798053009792659e-14
-9.711479069909911e-14
-9.625263002883117e-14
-9.539404173417993e-14
-9.453901946220250e-14
-9.368755685995628e-14
-9.283964757449827e-14
-9.199528525288586e-14
-9.115446354217615e-14
-9.031717608942635e-14
-8.948341654169377e-14
-8.865317854603561e-14
-8.782645574950890e-14
-8.700324179917105e-14
-8.618353034207921e-14
-8.536731502529052e-14
-8.455458949586231e-14
-8.374534740085179e-14
-8.293958238731600e-14
-8.213728810231233e-14
-8.133845819289787e-14
-8.054308630612995e-14
-7.975116608906572e-14
-7.896269118876237e-14
-7.817765525227718e-14
-7.739605192666727e-14
-7.661787485898985e-14
-7.584311769630225e-14
-7.507177408566160e-14
-7.430383767412511e-14
-7.353930210875000e-14
-7.277816103659348e-14
-7.202040810471271e-14
-7.126603696016501e-14
-7.051504125000748e-14
-6.976741462129748e-14
-6.902315072109209e-14
-6.828224319644850e-14
-6.754468569442404e-14
-6.681047186207585e-14
-6.607959534646109e-14
-6.535204979463714e-14
-6.462782885366106e-14
-6.390692617059005e-14
-6.318933539248142e-14
-6.247505016639228e-14
-6.176406413937997e-14
-6.105637095850166e-14
-6.035196427081444e-14
-5.965083772337565e-14
-5.895298496324247e-14
-5.825839963747205e-14
-5.756707539312170e-14
-5.687900587724864e-14
-5.619418473690992e-14
-5.551260561916291e-14
-5.483426217106477e-14
-5.415914803967267e-14
-5.348725687204390e-14
-5.281858231523563e-14
-5.215311801630508e-14
-5.149085762230945e-14
-5.083179478030590e-14
-5.017592313735176e-14
-4.952323634050416e-14
-4.887372803682034e-14
-4.822739187335749e-14
-4.758422149717283e-14
-4.694421055532354e-14
-4.630735269486690e-14
-4.567364156286007e-14
-4.504307080636029e-14
-4.441563407242475e-14
-4.379132500811063e-14
-4.317013726047522e-14
-4.255206447657569e-14
-4.193710030346925e-14
-4.132523838821311e-14
-4.071647237786448e-14
-4.011079591948053e-14
-3.950820266011857e-14
-3.890868624683574e-14
-3.831224032668924e-14
-3.771885854673638e-14
-3.712853455403422e-14
-3.654126199564009e-14
-3.595703451861117e-14
-3.537584577000462e-14
-3.479768939687773e-14
-3.422255904628771e-14
-3.365044836529166e-14
-3.308135100094691e-14
-3.251526060031063e-14
-3.195217081043998e-14
-3.139207527839226e-14
-3.083496765122465e-14
-3.028084157599435e-14
-2.972969069975858e-14
-2.918150866957449e-14
-2.863628913249940e-14
-2.809402573559046e-14
-2.755471212590489e-14
-2.701834195049990e-14
-2.648490885643270e-14
-2.595440649076046e-14
-2.542682850054047e-14
-2.490216853282990e-14
-2.438042023468597e-14
-2.386157725316589e-14
-2.334563323532683e-14
-2.283258182822607e-14
-2.232241667892079e-14
-2.181513143446820e-14
-2.131071974192551e-14
-2.080917524834993e-14
-2.031049160079865e-14
-1.981466244632893e-14
-1.932168143199796e-14
-1.883154220486294e-14
-1.834423841198109e-14
-1.785976370040963e-14
-1.737811171720571e-14
-1.689927610942664e-14
-1.642325052412954e-14
-1.595002860837173e-14
-1.547960400921033e-14
-1.501197037370254e-14
-1.454712134890563e-14
-1.408505058187679e-14
-1.362575171967320e-14
-1.316921840935214e-14
-1.271544429797080e-14
-1.226442303258632e-14
-1.181614826025599e-14
-1.137061362803696e-14
-1.092781278298651e-14
-1.048773937216182e-14
-1.005038704262009e-14
-9.615749441418548e-15
-9.183820215614393e-15
-8.754593012264807e-15
-8.328061478427066e-15
-7.904219261158347e-15
-7.483060007515863e-15
-7.064577364556822e-15
-6.648764979338440e-15
-6.235616498917897e-15
-5.825125570352462e-15
-5.417285840699316e-15
-5.012090957015671e-15
-4.609534566358739e-15
-4.209610315785702e-15
-3.812311852353827e-15
-3.417632823120298e-15
-3.025566875142326e-15
-2.636107655477121e-15
-2.249248811181895e-15
-1.864983989313832e-15
-1.483306836930198e-15
-1.104211001088175e-15
-7.276901288449760e-16
-3.537378672578109e-16
1.765213661613440e-17
3.864862357195972e-16
7.527707829953923e-16
1.116512131386334e-15
1.477716633835135e-15
1.836390643284661e-15
2.192540512677699e-15
2.546172594956989e-15
2.897293243065345e-15
3.245908809945579e-15
3.592025648540409e-15
3.935650111792719e-15
4.276788552645226e-15
4.615447324040744e-15
4.951632778922084e-15
5.285351270231988e-15
5.616609150913270e-15
5.945412773908716e-15
6.271768492161118e-15
6.595682658613263e-15
6.917161626207962e-15
7.236211747887962e-15
7.552839376596071e-15
7.867050865275079e-15
8.178852566867775e-15
8.488250834316970e-15
8.795252020565409e-15
9.099862478555902e-15
9.402088561231239e-15
9.701936621534209e-15
9.999413012407599e-15
1.029452408679422e-14
1.058727619763682e-14
1.087767569787821e-14
1.116572894046117e-14
1.145144227832850e-14
1.173482206442301e-14
1.201587465168744e-14
1.229460639306460e-14
1.257102364149730e-14
1.284513274992828e-14
1.311694007130037e-14
1.338645195855637e-14
1.365367476463903e-14
1.391861484249115e-14
1.418127854505555e-14
1.444167222527495e-14
1.469980223609221e-14
1.495567493045010e-14
1.520929666129139e-14
1.546067378155889e-14
1.570981264419537e-14
1.595671960214362e-14
1.620140100834642e-14
1.644386321574661e-14
1.668411257728694e-14
1.692215544591017e-14
1.715799817455915e-14
1.739164711617664e-14
1.762310862370540e-14
1.785238905008828e-14
1.807949474826804e-14
1.830443207118744e-14
1.852720737178932e-14
1.874782700301643e-14
1.896629731781156e-14
1.918262466911753e-14
1.939681540987712e-14
1.960887589303311e-14
1.981881247152826e-14
2.002663149830540e-14
2.023233932630731e-14
2.043594230847676e-14
2.063744679775658e-14
2.083685914708952e-14
2.103418570941837e-14
2.122943283768594e-14
2.142260688483502e-14
2.161371420380836e-14
2.180276114754881e-14
2.198975406899912e-14
2.217469932110206e-14
2.235760325680046e-14
2.253847222903710e-14
2.271731259075474e-14
2.289413069489622e-14
2.306893289440429e-14
2.324172554222173e-14
2.341251499129136e-14
2.358130759455597e-14
2.374810970495830e-14
2.391292767544121e-14
2.407576785894745e-14
2.423663660841980e-14
2.439554027680104e-14
2.455248521703401e-14
2.470747778206147e-14
2.486052432482618e-14
2.501163119827098e-14
2.516080475533862e-14
2.530805134897190e-14
2.545337733211363e-14
2.559678905770659e-14
2.573829287869353e-14
2.587789514801729e-14
2.601560221862064e-14
2.615142044344635e-14
2.628535617543724e-14
2.641741576753609e-14
2.654760557268567e-14
2.667593194382880e-14
2.680240123390823e-14
2.692701979586678e-14
2.704979398264724e-14
2.717073014719238e-14
2.728983464244499e-14
2.740711382134788e-14
2.752257403684382e-14
2.763622164187559e-14
2.774806298938601e-14
2.785810443231786e-14
2.796635232361391e-14
2.807281301621695e-14
2.817749286306979e-14
2.828039821711521e-14
2.838153543129598e-14
2.848091085855492e-14
2.857853085183480e-14
2.867440176407841e-14
2.876852994822854e-14
2.886092175722799e-14
2.895158354401953e-14
2.904052166154596e-14
2.912774246275009e-14
2.921325230057465e-14
2.929705752796250e-14
2.937916449785637e-14
2.945957956319907e-14
2.953830907693341e-14
2.961535939200216e-14
2.969073686134809e-14
2.976444783791403e-14
2.983649867464274e-14
2.990689572447700e-14
2.997564534035964e-14
3.004275387523342e-14
3.010822768204112e-14
3.017207311372555e-14
3.023429652322949e-14
3.029490426349574e-14
3.035390268746706e-14
3.041129814808627e-14
3.046709699829615e-14
3.052130559103947e-14
3.057393027925905e-14
3.062497741589765e-14
3.067445335389808e-14
3.072236444620312e-14
3.076871704575556e-14
3.081351750549818e-14
3.085677217837378e-14
3.089848741732517e-14
3.093866957529509e-14
3.097732500522636e-14
3.101446006006177e-14
3.105008109274409e-14
3.108419445621613e-14
3.111680650342067e-14
3.114792358730049e-14
3.117755206079840e-14
3.120569827685717e-14
3.123236858841960e-14
3.125756934842846e-14
3.128130690982658e-14
3.130358762555670e-14
3.132441784856163e-14
3.134380393178417e-14
3.136175222816710e-14
3.137826909065320e-14
3.139336087218528e-14
3.140703392570610e-14
3.141929460415847e-14
3.143014926048517e-14
3.143960424762900e-14
3.144766591853273e-14
3.145434062613917e-14
3.145963472339109e-14
3.146355456323130e-14
3.146610649860257e-14
3.146729688244769e-14
3.146713206770947e-14
3.146561840733067e-14
3.146276225425410e-14
3.145856996142254e-14
3.145304788177878e-14
3.144620236826561e-14
3.143803977382581e-14
3.142856645140218e-14
3.141778875393750e-14
3.140571303437457e-14
3.139234564565618e-14
3.137769294072511e-14
3.136176127252415e-14
3.134455699399608e-14
3.132608645808370e-14
3.130635601772981e-14
3.128537202587719e-14
3.126314083546861e-14
3.123966879944689e-14
3.121496227075479e-14
3.118902760233512e-14
3.116187114713066e-14
3.113349925808420e-14
3.110391828813852e-14
3.107313459023643e-14
3.104115451732070e-14
3.100798442233413e-14
3.097363065821950e-14
3.093809957791962e-14
3.090139753437724e-14
3.086353088053518e-14
3.082450596933623e-14
3.078432915372315e-14
3.074300678663876e-14
3.070054522102583e-14
3.065695080982717e-14
3.061222990598554e-14
3.056638886244375e-14
3.051943403214459e-14
3.047137176803084e-14
3.042220842304528e-14
3.037195035013071e-14
3.032060390222992e-14
3.026817543228570e-14
3.021467129324084e-14
3.016009783803812e-14
3.010446141962031e-14
3.004776839093026e-14
2.999002510491070e-14
2.993123791450444e-14
2.987141317265428e-14
2.981055723230300e-14
2.974867644639338e-14
2.968577716786823e-14
2.962186574967029e-14
2.955694854474241e-14
2.949103190602735e-14
2.942412218646790e-14
2.935622573900684e-14
2.928734891658697e-14
2.921749807215110e-14
2.914667955864198e-14
2.907489972900243e-14
2.900216493617521e-14
2.892848153310313e-14
2.885385587272896e-14
2.877829430799553e-14
2.870180319184557e-14
2.862438887722191e-14
2.854605771706734e-14
2.846681606432462e-14
2.838667027193656e-14
2.830562669284595e-14
2.822369167999557e-14
2.814087158632823e-14
2.805717276478669e-14
2.797260156831374e-14
2.788716434985219e-14
2.780086746234482e-14
2.771371725873440e-14
2.762572009196375e-14
2.753688231497565e-14
2.744721028071286e-14
2.735671034211822e-14
2.726538885213447e-14
2.717325216370444e-14
2.708030662977089e-14
2.698655860327663e-14
2.689201443716442e-14
2.679668048437708e-14
2.670056309785736e-14
2.660366863054811e-14
2.650600343539205e-14
2.640757386533201e-14
2.630838627331078e-14
2.620844701227114e-14
2.610776243515586e-14
2.600633889490778e-14
2.590418274446964e-14
2.580130033678423e-14
2.569769802479438e-14
2.559338216144285e-14
2.548835909967241e-14
2.538263519242589e-14
2.527621679264605e-14
2.516911025327567e-14
2.506132192725759e-14
2.495285816753454e-14
2.484372532704937e-14
2.473392975874479e-14
2.462347781556367e-14
2.451237585044876e-14
2.440063021634284e-14
2.428824726618870e-14
2.417523335292915e-14
2.406159482950695e-14
2.394733804886494e-14
2.383246936394583e-14
2.371699512769248e-14
2.360092169304766e-14
2.348425541295414e-14
2.336700264035472e-14
2.324916972819221e-14
2.313076302940937e-14
2.301178889694898e-14
2.289225368375386e-14
2.277216374276678e-14
2.265152542693053e-14
2.253034508918792e-14
2.240862908248170e-14
2.228638375975468e-14
2.216361547394968e-14
2.204033057800943e-14
2.191653542487676e-14
2.179223636749443e-14
2.166743975880529e-14
2.154215195175203e-14
2.141637929927752e-14
2.129012815432452e-14
2.116340486983584e-14
2.103621579875421e-14
2.090856729402249e-14
2.078046570858341e-14
2.065191739537978e-14
2.052292870735444e-14
2.039350599745010e-14
2.026365561860961e-14
2.013338392377574e-14
2.000269726589123e-14
1.987160199789892e-14
1.974010447274160e-14
1.960821104336204e-14
1.947592806270304e-14
1.934326188370739e-14
1.921021885931787e-14
1.907680534247725e-14
1.894302768612838e-14
1.880889224321398e-14
1.867440536667692e-14
1.853957340945988e-14
1.840440272450575e-14
1.826889966475724e-14
1.813307058315720e-14
1.799692183264839e-14
1.786045976617359e-14
1.772369073667561e-14
1.758662109709724e-14
1.744925720038125e-14
1.731160539947043e-14
1.717367204730761e-14
1.703546349683555e-14
1.689698610099699e-14
1.675824621273481e-14
1.661925018499172e-14
1.648000437071052e-14
1.634051512283409e-14
1.620078879430509e-14
1.606083173806642e-14
1.592065030706076e-14
1.578025085423101e-14
1.563963973251986e-14
1.549882329487019e-14
1.535780789422473e-14
1.521659988352627e-14
1.507520561571762e-14
1.493363144374155e-14
1.479188372054084e-14
1.464996879905832e-14
1.450789303223676e-14
1.436566277301894e-14
1.422328437434765e-14
1.408076418916570e-14
1.393810857041585e-14
1.379532387104091e-14
1.365241644398366e-14
1.350939264218688e-14
1.336625881859337e-14
1.322302132614592e-14
1.307968651778732e-14
1.293626074646032e-14
1.279275036510778e-14
1.264916172667244e-14
1.250550118409710e-14
1.236177509032456e-14
1.221798979829759e-14
1.207415166095900e-14
1.193026703125158e-14
1.178634226211806e-14
1.164238370650132e-14
1.149839771734405e-14
1.135439064758916e-14
1.121036885017932e-14
1.106633867805736e-14
1.092230648416612e-14
1.077827862144831e-14
1.063426144284682e-14
1.049026130130430e-14
1.034628454976368e-14
1.020233754116765e-14
1.005842662845904e-14
9.914558164580622e-15
9.770738502475214e-15
9.626973995085573e-15
9.483270995354495e-15
9.339635856224747e-15
9.196074930639201e-15
9.052594571540549e-15
8.909201131871630e-15
8.765900964575226e-15
8.622700422594136e-15
8.479605858871123e-15
8.336623626349016e-15
8.193760077970536e-15
8.051021566678522e-15
7.908414445415774e-15
7.765945067125038e-15
7.623619784749135e-15
7.481444951230835e-15
7.339426919512975e-15
7.197572042538247e-15
7.055886673249525e-15
6.914377164589576e-15
6.773049869501209e-15
6.631911140927147e-15
6.490967331810261e-15
6.350224795093239e-15
6.209689883718989e-15
6.069368950630195e-15
5.929268348769737e-15
5.789394431080313e-15
5.649753550504800e-15
5.510352059985900e-15
5.371196312466437e-15
5.232292660889269e-15
5.093647458197115e-15
4.955267057332730e-15
4.817157811238989e-15
4.679326072858595e-15
4.541778195134407e-15
4.404520531009194e-15
4.267559433425729e-15
4.130901255326801e-15
3.994552349655198e-15
3.858519069353745e-15
3.722807767365178e-15
3.587424796632355e-15
3.452376510097996e-15
3.317669260704926e-15
3.183309401395895e-15
3.049303285113767e-15
2.915657264801257e-15
2.782377693401190e-15
2.649470923856319e-15
2.516943309109507e-15
2.384801202103467e-15
2.253050955781027e-15
2.121698923084975e-15
1.990751456958100e-15
1.860214910343153e-15
1.730095636182962e-15
1.600399987420315e-15
1.471134316998000e-15
1.342304977858731e-15
1.213918322945411e-15
1.085980705200790e-15
9.584984775676196e-16
8.314779929888026e-16
7.049256044069754e-16
5.788476647650036e-16
4.532505270056374e-16
3.281405440717426e-16
2.035240689060311e-16
7.940745445133048e-17
-4.420294634959841e-17
-1.673007805539197e-16
-2.898796952188897e-16
-4.119333374017024e-16
-5.334553541595519e-16
-6.544393925496831e-16
-7.748790996292903e-16
-8.947681224555679e-16
-1.014100108085744e-15
-1.132868703577045e-15
-1.251067555986651e-15
-1.368690312371805e-15
-1.485730619789701e-15
-1.602182125297535e-15
-1.718038475952549e-15
-1.833293318811940e-15
-1.947940300932902e-15
-2.061973069372677e-15
-2.175385271188462e-15
-2.288170553437452e-15
-2.400322563176872e-15
-2.511834947463952e-15
-2.622701353355884e-15
-2.732915427909867e-15
-2.842470818183140e-15
-2.951361171232901e-15
-3.059580134116344e-15
-3.167121353890712e-15
-3.273978477613200e-15
-3.380145152341004e-15
-3.485615025131366e-15
-3.590381743041467e-15
-3.694438953128546e-15
-3.797780302449788e-15
-3.900399438062431e-15
-4.002290007023657e-15
-4.103445656390707e-15
-4.203860033220778e-15
-4.303526784571064e-15
-4.402439557498808e-15
-4.500591999061205e-15
-4.597977756315453e-15
-4.694590476318791e-15
-4.790423806128415e-15
-4.885471392801525e-15
-4.979726883395343e-15
-5.073183924967095e-15
-5.165836164573978e-15
-5.257677249273190e-15
-5.348700826121969e-15
-5.438900542177512e-15
-5.528270044497019e-15
-5.616802980137724e-15
-5.704492996156828e-15
-5.791333739611529e-15
-5.877318857559061e-15
-5.962441997056614e-15
-6.046696805161407e-15
-6.130076928930668e-15
-6.212576015421593e-15
-6.294187711691380e-15
-6.374905664797268e-15
-6.454723521796453e-15
-6.533634929746135e-15
-6.611633535703547e-15
-6.688712986725892e-15
-6.764866929870368e-15
-6.840089012194208e-15
-6.914372880754602e-15
-6.987712182608772e-15
-7.060100564813940e-15
-7.131531674427304e-15
-7.201999158506077e-15
-7.271496664107462e-15
-7.340017838288686e-15
-7.407556328106953e-15
-7.474105780619465e-15
-7.539659842883447e-15
-7.604212161956109e-15
-7.667756384894646e-15
-7.730286158756283e-15
-7.791795130598235e-15
-7.852276947477699e-15
-7.911725256451904e-15
-7.970133704578051e-15
-8.027495938913342e-15
-8.083805606515005e-15
-8.139056354440246e-15
-8.193241829746264e-15
-8.246355679490288e-15
-8.298391550729520e-15
-8.349343090521166e-15
-8.399203945922440e-15
-8.447967763990566e-15
-8.495628191782737e-15
-8.542178876356180e-15
-8.587613464768098e-15
-8.631925604075704e-15
-8.675108941336200e-15
-8.717157123606810e-15
-8.758063797944742e-15
-8.797822611407199e-15
-8.836427211051403e-15
-8.873871243934554e-15
-8.910148357113875e-15
-8.945252197646562e-15
-8.979176412589845e-15
-9.011914649000924e-15
-9.043460553937014e-15
-9.073807774455323e-15
-9.102949957613064e-15
-9.130880750467445e-15
-9.157593800075672e-15
-9.183082753494971e-15
-9.207341257782544e-15
-9.230362959995603e-15
-9.252141507191361e-15
-9.272670546427028e-15
-9.291943724759809e-15
-9.309954689246925e-15
-9.326697086945585e-15
-9.342164564912998e-15
-9.356350770206375e-15
-9.369249349882925e-15
-9.380853950999862e-15
-9.391158220614396e-15
-9.400155805783740e-15
-9.407840353565101e-15
-9.414205511015697e-15
-9.419244925192733e-15
-9.422952243153420e-15
-9.425321111954975e-15
-9.426345178654603e-15
-9.426018090309519e-15
-9.424333493976930e-15
-9.421285036714050e-15
-9.416866365578091e-15
-9.411071127626265e-15
-9.403892969915776e-15
-9.395325539503842e-15
-9.385362483447673e-15
-9.373997448804477e-15
-9.361224082631469e-15
-9.347036031985861e-15
-9.331426943924859e-15
-9.314390465505673e-15
-9.295920243785521e-15
-9.276009925821609e-15
-9.254653158671151e-15
-9.231843589391362e-15
-9.207574865039443e-15
-9.181840632672610e-15
-9.154634539348078e-15
-9.125950232123050e-15
-9.095781358054741e-15
-9.064121564200374e-15
-9.030964497617137e-15
-8.996303805362256e-15
-8.960133134492937e-15
-8.922446132066392e-15
-8.883236445139834e-15
-8.842497720770471e-15
-8.800223606015532e-15
-8.756407747932199e-15
-8.711043793577703e-15
-8.664125390009241e-15
-8.615646184284032e-15
-8.565599823459289e-15
-8.513979954592235e-15
-8.460780224740050e-15
-8.405994280959966e-15
-8.349615770309188e-15
-8.291638339844928e-15
-8.232055636624402e-15
-8.170861307704831e-15
-8.108049000143398e-15
-8.043612360997336e-15
-7.977545037323843e-15
-7.909840676180132e-15
-7.840492924623421e-15
-7.769495429710937e-15
-7.696841838499854e-15
-7.622525798047400e-15
-7.546540955410785e-15
-7.468880957647228e-15
-7.389539451813930e-15
-7.308510084968121e-15
-7.225786504166996e-15
-7.141362356467772e-15
-7.055231288927640e-15
-6.967386948603829e-15
-6.877822982553550e-15
-6.786533037834007e-15
-6.693510761502449e-15
-6.598749800616026e-15
-6.502243802231979e-15
-6.403986413407517e-15
-6.303971281199850e-15
-6.202192052666207e-15
-6.098642374863783e-15
-5.993315894849791e-15
-5.886206259681428e-15
-5.777307116415914e-15
-5.666612112110460e-15
-5.554114893822289e-15
-5.439809108608630e-15
-5.323688403526638e-15
-5.205746425633554e-15
-5.085976821986590e-15
-4.964373239642953e-15
-4.840929325659879e-15
-4.715638727094553e-15
-4.588495091004192e-15
-4.459492064445992e-15
-4.328623294477174e-15
-4.195882428154957e-15
-4.061263112536540e-15
-3.924758994679150e-15
-3.786363721640022e-15
-3.646070940476305e-15
-3.503874298245236e-15
-3.359767442004027e-15
-3.213744018809917e-15
-3.065797675720068e-15
-2.915922059791747e-15
-2.764110818082124e-15
-2.610357597648405e-15
-2.454656045547812e-15
-2.296999808837560e-15
-2.137382534574865e-15
-1.975797869816979e-15
-1.812239461621013e-15
-1.646700957044244e-15
-1.479176003143866e-15
-1.309658246977115e-15
-1.138141335601170e-15
-9.646189160732686e-16
-7.890846354506190e-16
-6.115321407903890e-16
-4.319550791498275e-16
-2.503470975861359e-16
-6.670184315653015e-17
1.189776579231182e-16
3.066067460189336e-16
4.960587289713555e-16
6.872065672444195e-16
8.799232213022133e-16
1.074081651608798e-15
1.269554818628315e-15
1.466215682824770e-15
1.663937204662361e-15
1.862592344605122e-15
2.062054063117139e-15
2.262195320662500e-15
2.462889077705294e-15
2.664008294709552e-15
2.865425932139474e-15
3.067014950459092e-15
3.268648310132493e-15
3.470198971623738e-15
3.671539895396971e-15
3.872544041916194e-15
4.073084371645608e-15
4.273033845049245e-15
4.472265422591192e-15
4.670652064735539e-15
4.868066731946370e-15
5.064382384687777e-15
5.259471983423790e-15
5.453208488618607e-15
5.645464860736262e-15
5.836114060240817e-15
6.025029047596410e-15
6.212082783267105e-15
6.397148227716935e-15
6.580098341410095e-15
6.760806084810619e-15
6.939144418382595e-15
7.114986302590110e-15
7.288204697897254e-15
7.458672564768066e-15
7.626262863666729e-15
7.790848555057283e-15
7.952302599403794e-15
8.110497957170394e-15
8.265307588821150e-15
8.416604454820104e-15
8.564261515631433e-15
8.708151731719179e-15
8.848148063547431e-15
8.984123471580277e-15
9.115950916281805e-15
9.243503358116084e-15
9.366653757547222e-15
9.485275075039303e-15
9.599240271056451e-15
9.708422306062690e-15
9.812694140522165e-15
9.911928734898909e-15
1.000599904965704e-14
1.009477804526064e-14
1.017813868217380e-14
1.025595392086063e-14
1.032809672178518e-14
1.039444004541157e-14
1.045485685220384e-14
1.050922010262614e-14
1.055740275714250e-14
1.059927777621706e-14
1.063471812031387e-14
1.066359674989704e-14
1.068578662543063e-14
1.070116070737876e-14
1.070959195620550e-14
1.071095333237494e-14
1.070511779635118e-14
1.069195830859829e-14
1.067134782958036e-14
1.064315931976149e-14
1.060726573960576e-14
1.056354004957726e-14
1.051185521014007e-14
1.045208418175829e-14
1.038409992489601e-14
1.030777540001730e-14