/*--------------------------------*- C++ -*----------------------------------*\
| =========                 |                                                 |
| \\      /  F ield         | OpenFOAM: The Open Source CFD Toolbox           |
|  \\    /   O peration     | Version:  5.x                                   |
|   \\  /    A nd           | Web:      www.OpenFOAM.org                      |
|    \\/     M anipulation  |                                                 |
\*---------------------------------------------------------------------------*/
FoamFile
{
    version     2.0;
    format      ascii;
    class       volScalarField;
    location    "0";
    object       HO2;
}
// * * * * * * * * * * * * * * * * * * * * * * * * * * * * * * * * * * * * * //

dimensions      [0 0 0 0 0 0 0];

internalField   nonuniform List<scalar>
4830
(
-2.464887058333342e-12
-2.455240501944315e-12
-2.445617073941110e-12
-2.436016748170297e-12
-2.426439498478447e-12
-2.416885298712129e-12
-2.407354122717916e-12
-2.397845944342374e-12
-2.388360737432076e-12
-2.378898475833591e-12
-2.369459133393490e-12
-2.360042683958343e-12
-2.350649101374720e-12
-2.341278359489191e-12
-2.331930432148326e-12
-2.322605293198696e-12
-2.313302916486870e-12
-2.304023275859420e-12
-2.294766345162914e-12
-2.285532098243923e-12
-2.276320508949018e-12
-2.267131551124768e-12
-2.257965198617744e-12
-2.248821425274515e-12
-2.239700204941653e-12
-2.230601511465727e-12
-2.221525318693307e-12
-2.212471600470965e-12
-2.203440330645268e-12
-2.194431483062788e-12
-2.185445031570095e-12
-2.176480950013761e-12
-2.167539212240353e-12
-2.158619792096443e-12
-2.149722663428599e-12
-2.140847800083395e-12
-2.131995175907399e-12
-2.123164764747180e-12
-2.114356540449311e-12
-2.105570476860360e-12
-2.096806547826897e-12
-2.088064727195493e-12
-2.079344988812719e-12
-2.070647306525144e-12
-2.061971654179339e-12
-2.053318005621872e-12
-2.044686334699316e-12
-2.036076615258240e-12
-2.027488821145215e-12
-2.018922926206809e-12
-2.010378904289594e-12
-2.001856729240139e-12
-1.993356374905015e-12
-1.984877815130793e-12
-1.976421023764042e-12
-1.967985974651332e-12
-1.959572641639233e-12
-1.951180998574317e-12
-1.942811019303152e-12
-1.934462677672310e-12
-1.926135947528358e-12
-1.917830802717870e-12
-1.909547217087415e-12
-1.901285164483562e-12
-1.893044618752882e-12
-1.884825553741945e-12
-1.876627943297322e-12
-1.868451761265582e-12
-1.860296981493295e-12
-1.852163577827033e-12
-1.844051524113363e-12
-1.835960794198859e-12
-1.827891361930089e-12
-1.819843201153623e-12
-1.811816285716032e-12
-1.803810589463886e-12
-1.795826086243754e-12
-1.787862749902208e-12
-1.779920554285816e-12
-1.771999473241152e-12
-1.764099480614782e-12
-1.756220550253278e-12
-1.748362656003210e-12
-1.740525771711148e-12
-1.732709871223663e-12
-1.724914928387325e-12
-1.717140917048702e-12
-1.709387811054367e-12
-1.701655584250889e-12
-1.693944210484838e-12
-1.686253663602785e-12
-1.678583917451299e-12
-1.670934945876951e-12
-1.663306722726310e-12
-1.655699221845948e-12
-1.648112417082434e-12
-1.640546282282339e-12
-1.633000791292232e-12
-1.625475917958684e-12
-1.617971636128265e-12
-1.610487919647546e-12
-1.603024742363095e-12
-1.595582078121484e-12
-1.588159900769282e-12
-1.580758184153060e-12
-1.573376902119389e-12
-1.566016028514837e-12
-1.558675537185976e-12
-1.551355401979375e-12
-1.544055596741605e-12
-1.536776095319236e-12
-1.529516871558838e-12
-1.522277899306981e-12
-1.515059152410236e-12
-1.507860604715171e-12
-1.500682230068359e-12
-1.493524002316368e-12
-1.486385895305770e-12
-1.479267882883133e-12
-1.472169938895030e-12
-1.465092037188029e-12
-1.458034151608700e-12
-1.450996256003615e-12
-1.443978324219342e-12
-1.436980330102453e-12
-1.430002247499517e-12
-1.423044050257105e-12
-1.416105712221787e-12
-1.409187207240133e-12
-1.402288509158712e-12
-1.395409591824096e-12
-1.388550429082855e-12
-1.381710994781558e-12
-1.374891262766776e-12
-1.368091206885079e-12
-1.361310800983037e-12
-1.354550018907220e-12
-1.347808834504199e-12
-1.341087221620544e-12
-1.334385154102824e-12
-1.327702605797611e-12
-1.321039550551474e-12
-1.314395962210983e-12
-1.307771814622708e-12
-1.301167081633221e-12
-1.294581737089090e-12
-1.288015754836886e-12
-1.281469108723180e-12
-1.274941772594541e-12
-1.268433720297539e-12
-1.261944925678745e-12
-1.255475362584729e-12
-1.249025004862062e-12
-1.242593826357312e-12
-1.236181800917051e-12
-1.229788902387849e-12
-1.223415104616275e-12
-1.217060381448900e-12
-1.210724706732295e-12
-1.204408054313028e-12
-1.198110398037672e-12
-1.191831711752794e-12
-1.185571969304967e-12
-1.179331144540759e-12
-1.173109211306742e-12
-1.166906143449485e-12
-1.160721914815559e-12
-1.154556499251533e-12
-1.148409870603978e-12
-1.142282002719465e-12
-1.136172869444562e-12
-1.130082444625840e-12
-1.124010702109870e-12
-1.117957615743223e-12
-1.111923159372466e-12
-1.105907306844172e-12
-1.099910032004910e-12
-1.093931308701251e-12
-1.087971110779764e-12
-1.082029412087020e-12
-1.076106186469589e-12
-1.070201407774041e-12
-1.064315049846945e-12
-1.058447086534874e-12
-1.052597491684396e-12
-1.046766239142082e-12
-1.040953302754502e-12
-1.035158656368226e-12
-1.029382273829824e-12
-1.023624128985867e-12
-1.017884195682924e-12
-1.012162447767567e-12
-1.006458859086364e-12
-1.000773403485886e-12
-9.951060548127041e-13
-9.894567869133872e-13
-9.838255736345063e-13
-9.782123888226310e-13
-9.726172063243317e-13
-9.670399999861787e-13
-9.614807436547418e-13
-9.559394111765919e-13
-9.504159763982985e-13
-9.449104131664318e-13
-9.394226953275623e-13
-9.339527967282602e-13
-9.285006912150952e-13
-9.230663526346378e-13
-9.176497548334583e-13
-9.122508716581267e-13
-9.068696769552131e-13
-9.015061445712879e-13
-8.961602483529212e-13
-8.908319621466829e-13
-8.855212597991434e-13
-8.802281151568727e-13
-8.749525020664415e-13
-8.696943943744197e-13
-8.644537659273768e-13
-8.592305905718838e-13
-8.540248421545108e-13
-8.488364945218274e-13
-8.436655215204044e-13
-8.385118969968121e-13
-8.333755947976197e-13
-8.282565887693981e-13
-8.231548527587177e-13
-8.180703606121479e-13
-8.130030861762592e-13
-8.079530032976224e-13
-8.029200858228069e-13
-7.979043075983830e-13
-7.929056424709211e-13
-7.879240642869912e-13
-7.829595468931634e-13
-7.780120641360083e-13
-7.730815898620954e-13
-7.681680979179955e-13
-7.632715621502787e-13
-7.583919564055145e-13
-7.535292545302739e-13
-7.486834303711268e-13
-7.438544577746431e-13
-7.390423105873930e-13
-7.342469626559474e-13
-7.294683878268755e-13
-7.247065599467478e-13
-7.199614528621348e-13
-7.152330404196067e-13
-7.105212964657329e-13
-7.058261948470844e-13
-7.011477094102310e-13
-6.964858140017429e-13
-6.918404824681901e-13
-6.872116886561432e-13
-6.825994064121722e-13
-6.780036095828472e-13
-6.734242720147382e-13
-6.688613675544159e-13
-6.643148700484499e-13
-6.597847533434106e-13
-6.552709912858682e-13
-6.507735577223930e-13
-6.462924264995548e-13
-6.418275714639240e-13
-6.373789664620711e-13
-6.329465853405656e-13
-6.285304019459781e-13
-6.241303901248790e-13
-6.197465237238375e-13
-6.153787765894249e-13
-6.110271225682110e-13
-6.066915355067654e-13
-6.023719892516593e-13
-5.980684576494622e-13
-5.937809145467441e-13
-5.895093337900757e-13
-5.852536892260267e-13
-5.810139547011677e-13
-5.767901040620689e-13
-5.725821111552999e-13
-5.683899498274313e-13
-5.642135939250334e-13
-5.600530172946759e-13
-5.559081937829295e-13
-5.517790972363640e-13
-5.476657015015497e-13
-5.435679804250567e-13
-5.394859078534552e-13
-5.354194576333155e-13
-5.313686036112078e-13
-5.273333196337020e-13
-5.233135795473684e-13
-5.193093571987774e-13
-5.153206264344987e-13
-5.113473611011030e-13
-5.073895350451601e-13
-5.034471221132402e-13
-4.995200961519137e-13
-4.956084310077506e-13
-4.917121005273210e-13
-4.878310785571953e-13
-4.839653389439433e-13
-4.801148555341357e-13
-4.762796021743424e-13
-4.724595527111334e-13
-4.686546809910790e-13
-4.648649608607498e-13
-4.610903661667151e-13
-4.573308707555459e-13
-4.535864484738120e-13
-4.498570731680833e-13
-4.461427186849305e-13
-4.424433588709238e-13
-4.387589675726325e-13
-4.350895186366280e-13
-4.314349859094794e-13
-4.277953432377575e-13
-4.241705644680324e-13
-4.205606234468740e-13
-4.169654940208530e-13
-4.133851500365391e-13
-4.098195653405023e-13
-4.062687137793133e-13
-4.027325691995420e-13
-3.992111054477585e-13
-3.957042963705334e-13
-3.922121158144362e-13
-3.887345376260376e-13
-3.852715356519077e-13
-3.818230837386163e-13
-3.783891557327341e-13
-3.749697254808312e-13
-3.715647668294772e-13
-3.681742536252428e-13
-3.647981597146981e-13
-3.614364589444130e-13
-3.580891251609580e-13
-3.547561322109035e-13
-3.514374539408188e-13
-3.481330641972749e-13
-3.448429368268414e-13
-3.415670456760890e-13
-3.383053645915876e-13
-3.350578674199074e-13
-3.318245280076186e-13
-3.286053202012912e-13
-3.254002178474954e-13
-3.222091947928017e-13
-3.190322248837800e-13
-3.158692819670005e-13
-3.127203398890335e-13
-3.095853724964490e-13
-3.064643536358171e-13
-3.033572571537082e-13
-3.002640568966923e-13
-2.971847267113400e-13
-2.941192404442209e-13
-2.910675719419053e-13
-2.880296950509636e-13
-2.850055836179658e-13
-2.819952114894820e-13
-2.789985525120829e-13
-2.760155805323381e-13
-2.730462693968177e-13
-2.700905929520923e-13
-2.671485250447316e-13
-2.642200395213064e-13
-2.613051102283867e-13
-2.584037110125420e-13
-2.555158157203432e-13
-2.526413981983603e-13
-2.497804322931632e-13
-2.469328918513225e-13
-2.440987507194084e-13
-2.412779827439903e-13
-2.384705617716392e-13
-2.356764616489249e-13
-2.328956562224175e-13
-2.301281193386876e-13
-2.273738248443050e-13
-2.246327465858400e-13
-2.219048584098628e-13
-2.191901341629432e-13
-2.164885476916520e-13
-2.138000728425590e-13
-2.111246834622344e-13
-2.084623533972484e-13
-2.058130564941712e-13
-2.031767665995728e-13
-2.005534575600237e-13
-1.979431032220938e-13
-1.953456774323535e-13
-1.927611540373727e-13
-1.901895068837216e-13
-1.876307098179707e-13
-1.850847366866899e-13
-1.825515613364494e-13
-1.800311576138194e-13
-1.775234993653702e-13
-1.750285604376716e-13
-1.725463146772941e-13
-1.700767359308078e-13
-1.676197980447828e-13
-1.651754748657896e-13
-1.627437402403978e-13
-1.603245680151780e-13
-1.579179320367003e-13
-1.555238061515346e-13
-1.531421642062515e-13
-1.507729800474212e-13
-1.484162275216132e-13
-1.460718804753983e-13
-1.437399127553465e-13
-1.414202982080278e-13
-1.391130106800127e-13
-1.368180240178712e-13
-1.345353120681735e-13
-1.322648486774897e-13
-1.300066076923899e-13
-1.277605629594445e-13
-1.255266883252236e-13
-1.233049576362973e-13
-1.210953447392358e-13
-1.188978234806093e-13
-1.167123677069878e-13
-1.145389512649418e-13
-1.123775480010413e-13
-1.102281317618565e-13
-1.080906763939575e-13
-1.059651557439143e-13
-1.038515436582975e-13
-1.017498139836771e-13
-9.965994056662320e-14
-9.758189725370600e-14
-9.551565789149568e-14
-9.346119632656226e-14
-9.141848640547621e-14
-8.938750197480756e-14
-8.736821688112646e-14
-8.536060497100311e-14
-8.336464009100768e-14
-8.138029608771019e-14
-7.940754680768108e-14
-7.744636609749028e-14
-7.549672780370835e-14
-7.355860577290505e-14
-7.163197385165057e-14
-6.971680588651534e-14
-6.781307572406940e-14
-6.592075721088279e-14
-6.403982419352594e-14
-6.217025051856903e-14
-6.031201003258185e-14
-5.846507658213495e-14
-5.662942401379824e-14
-5.480502617414216e-14
-5.299185690973676e-14
-5.118989006715218e-14
-4.939909949295864e-14
-4.761945903372626e-14
-4.585094253602514e-14
-4.409352384642566e-14
-4.234717681149789e-14
-4.061187527781200e-14
-3.888759309193815e-14
-3.717430410044653e-14
-3.547198214990717e-14
-3.378060108689051e-14
-3.210013475796659e-14
-3.043055700970556e-14
-2.877184168867763e-14
-2.712396264145284e-14
-2.548689371460159e-14
-2.386060875469394e-14
-2.224508160830007e-14
-2.064028612199014e-14
-1.904619614233432e-14
-1.746278551590269e-14
-1.589002808926563e-14
-1.432789770899320e-14
-1.277636822165558e-14
-1.123541347382294e-14
-9.705007312065344e-15
-8.185123582953178e-15
-6.675736133056512e-15
-5.176818808945410e-15
-3.688345457190355e-15
-2.210289924361212e-15
-7.426260570281518e-16
7.146722982384458e-16
2.161631294868514e-15
3.598277086291978e-15
5.024635825938367e-15
6.440733667237905e-15
7.846596763620124e-15
9.242251268514951e-15
1.062772333535231e-14
1.200303911756183e-14
1.336822476857345e-14
1.472330644181698e-14
1.606831029072225e-14
1.740326246871910e-14
1.872818912923744e-14
2.004311642570692e-14
2.134807051155745e-14
2.264307754021887e-14
2.392816366512100e-14
2.520335503969375e-14
2.646867781736678e-14
2.772415815157001e-14
2.896982219573325e-14
3.020569610328635e-14
3.143180602765912e-14
3.264817812228148e-14
3.385483854058309e-14
3.505181343599385e-14
3.623912896194361e-14
3.741681127186217e-14
3.858488651917947e-14
3.974338085732515e-14
4.089232043972912e-14
4.203173141982131e-14
4.316163995103128e-14
4.428207218678911e-14
4.539305428052463e-14
4.649461238566751e-14
4.758677265564766e-14
4.866956124389495e-14
4.974300430383903e-14
5.080712798890993e-14
5.186195845253747e-14
5.290752184815133e-14
5.394384432918151e-14
5.497095204905767e-14
5.598887116120970e-14
5.699762781906738e-14
5.799724817606074e-14
5.898775838561947e-14
5.996918460117325e-14
6.094155297615219e-14
6.190488966398591e-14
6.285922081810424e-14
6.380457259193720e-14
6.474097113891451e-14
6.566844261246584e-14
6.658701316602129e-14
6.749670895301049e-14
6.839755612686326e-14
6.928958084100964e-14
7.017280924887932e-14
7.104726750390211e-14
7.191298175950774e-14
7.276997816912622e-14
7.361828288618736e-14
7.445792206412080e-14
7.528892185635664e-14
7.611130841632457e-14
7.692510789745428e-14
7.773034645317583e-14
7.852705023691900e-14
7.931524540211345e-14
8.009495810218924e-14
8.086621449057610e-14
8.162904072070372e-14
8.238346294600212e-14
8.312950731990111e-14
8.386719999583036e-14
8.459656712721989e-14
8.531763486749946e-14
8.603042937009879e-14
8.673497678844783e-14
8.743130327597644e-14
8.811943498611427e-14
8.879939807229137e-14
8.947121868793745e-14
9.013492298648230e-14
9.079053712135574e-14
9.143808724598775e-14
9.207759951380807e-14
9.270910007824641e-14
9.333261509273280e-14
9.394817071069693e-14
9.455579308556861e-14
9.515550837077782e-14
9.574734271975431e-14
9.633132228592779e-14
9.690747322272828e-14
9.747582168358548e-14
9.803639382192920e-14
9.858921579118942e-14
9.913431374479586e-14
9.967171383617828e-14
1.002014422187667e-13
1.007235250459907e-13
1.012379884712803e-13
1.017448586480653e-13
1.022441617297755e-13
1.027359238698406e-13
1.032201712216907e-13
1.036969299387554e-13
1.041662261744646e-13
1.046280860822482e-13
1.050825358155359e-13
1.055296015277577e-13
1.059693093723432e-13
1.064016855027224e-13
1.068267560723250e-13
1.072445472345809e-13
1.076550851429200e-13
1.080583959507721e-13
1.084545058115668e-13
1.088434408787343e-13
1.092252273057041e-13
1.095998912459062e-13
1.099674588527704e-13
1.103279562797266e-13
1.106814096802044e-13
1.110278452076339e-13
1.113672890154448e-13
1.116997672570668e-13
1.120253060859300e-13
1.123439316554640e-13
1.126556701190988e-13
1.129605476302641e-13
1.132585903423897e-13
1.135498244089056e-13
1.138342759832414e-13
1.141119712188272e-13
1.143829362690926e-13
1.146471972874675e-13
1.149047804273817e-13
1.151557118422652e-13
1.154000176855475e-13
1.156377241106588e-13
1.158688572710286e-13
1.160934433200870e-13
1.163115084112636e-13
1.165230786979884e-13
1.167281803336911e-13
1.169268394718016e-13
1.171190822657497e-13
1.173049348689652e-13
1.174844234348781e-13
1.176575741169180e-13
1.178244130685148e-13
1.179849664430984e-13
1.181392603940985e-13
1.182873210749451e-13
1.184291746390679e-13
1.185648472398967e-13
1.186943650308615e-13
1.188177541653919e-13
1.189350407969179e-13
1.190462510788692e-13
1.191514111646758e-13
1.192505472077674e-13
1.193436853615738e-13
1.194308517795249e-13
1.195120726150506e-13
1.195873740215805e-13
1.196567821525446e-13
1.197203231613727e-13
1.197780232014947e-13
1.198299084263403e-13
1.198760049893393e-13
1.199163390439216e-13
1.199509367435171e-13
1.199798242415556e-13
1.200030276914668e-13
1.200205732466806e-13
1.200324870606269e-13
1.200387952867354e-13
1.200395240784360e-13
1.200346995891585e-13
1.200243479723328e-13
1.200084953813887e-13
1.199871679697560e-13
1.199603918908645e-13
1.199281932981441e-13
1.198905983450245e-13
1.198476331849357e-13
1.197993239713074e-13
1.197456968575695e-13
1.196867779971518e-13
1.196225935434841e-13
1.195531696499963e-13
1.194785324701181e-13
1.193987081572794e-13
1.193137228649101e-13
1.192236027464400e-13
1.191283739552988e-13
1.190280626449164e-13
1.189226949687228e-13
1.188122970801475e-13
1.186968951326206e-13
1.185765152795718e-13
1.184511836744310e-13
1.183209264706279e-13
1.181857698215925e-13
1.180457398807545e-13
1.179008628015438e-13
1.177511647373902e-13
1.175966718417234e-13
1.174374102679735e-13
1.172734061695701e-13
1.171046856999431e-13
1.169312750125223e-13
1.167532002607377e-13
1.165704875980188e-13
1.163831631777958e-13
1.161912531534982e-13
1.159947836785561e-13
1.157937809063991e-13
1.155882709904572e-13
1.153782800841601e-13
1.151638343409376e-13
1.149449599142198e-13
1.147216829574361e-13
1.144940296240168e-13
1.142620260673914e-13
1.140256984409898e-13
1.137850728982418e-13
1.135401755925774e-13
1.132910326774262e-13
1.130376703062182e-13
1.127801146323831e-13
1.125183918093508e-13
1.122525279905511e-13
1.119825493294139e-13
1.117084819793689e-13
1.114303520938460e-13
1.111481858262750e-13
1.108620093300858e-13
1.105718487587082e-13
1.102777302655720e-13
1.099796800041070e-13
1.096777241277431e-13
1.093718887899100e-13
1.090622001440378e-13
1.087486843435560e-13
1.084313675418945e-13
1.081102758924834e-13
1.077854355487521e-13
1.074568726641308e-13
1.071246133920492e-13
1.067886838859370e-13
1.064491102992243e-13
1.061059187853407e-13
1.057591354977160e-13
1.054087865897802e-13
1.050548982149631e-13
1.046974965266943e-13
1.043366076784039e-13
1.039722578235217e-13
1.036044731154774e-13
1.032332797077008e-13
1.028587037536218e-13
1.024807714066704e-13
1.020995088202763e-13
1.017149421478692e-13
1.013270975428790e-13
1.009360011587356e-13
1.005416791488687e-13
1.001441576667083e-13
9.974346286568406e-14
9.933962089922589e-14
9.893265792076366e-14
9.852260008372711e-14
9.810947354154613e-14
9.769330444765051e-14
9.727411895547015e-14
9.685194321843475e-14
9.642680338997425e-14
9.599872562351834e-14
9.556773607249697e-14
9.513386089034003e-14
9.469712623047711e-14
9.425755824633827e-14
9.381518309135329e-14
9.337002691895192e-14
9.292211588256394e-14
9.247147613561937e-14
9.201813383154800e-14
9.156211512377944e-14
9.110344616574369e-14
9.064215311087060e-14
9.017826211258991e-14
8.971179932433152e-14
8.924279089952526e-14
8.877126299160086e-14
8.829724175398815e-14
8.782075334011720e-14
8.734182390341751e-14
8.686047959731911e-14
8.637674657525179e-14
8.589065099064536e-14
8.540221899692967e-14
8.491147674753448e-14
8.441845039588968e-14
8.392316609542498e-14
8.342564999957047e-14
8.292592826175568e-14
8.242402703541062e-14
8.191997247396516e-14
8.141379073084892e-14
8.090550795949187e-14
8.039515031332388e-14
7.988274394577472e-14
7.936831501027411e-14
7.885188966025198e-14
7.833349404913824e-14
7.781315433036258e-14
7.729089665735487e-14
7.676674718354500e-14
7.624073206236267e-14
7.571287744723773e-14
7.518320949160027e-14
7.465175434887972e-14
7.411853817250619e-14
7.358358711590947e-14
7.304692733251923e-14
7.250858497576539e-14
7.196858619907789e-14
7.142695715588633e-14
7.088372399962066e-14
7.033891288371080e-14
6.979254996158638e-14
6.924466138667738e-14
6.869527331241363e-14
6.814441189222489e-14
6.759210327954104e-14
6.703837362779181e-14
6.648324909040713e-14
6.592675582081671e-14
6.536891997245049e-14
6.480976769873828e-14
6.424932515310994e-14
6.368761848899520e-14
6.312467385982399e-14
6.256051741902600e-14
6.199517532003110e-14
6.142867371626932e-14
6.086103876117033e-14
6.029229660816377e-14
5.972247341067988e-14
5.915159532214811e-14
5.857968849599846e-14
5.800677908566077e-14
5.743289324456482e-14
5.685805712614040e-14
5.628229688381743e-14
5.570563867102563e-14
5.512810864119495e-14
5.454973294775523e-14
5.397053774413622e-14
5.339054918376768e-14
5.280979342007957e-14
5.222829660650170e-14
5.164608489646368e-14
5.106318444339559e-14
5.047962140072723e-14
4.989542192188843e-14
4.931061216030892e-14
4.872521826941863e-14
4.813926640264718e-14
4.755278271342479e-14
4.696579335518094e-14
4.637832448134549e-14
4.579040224534828e-14
4.520205280061945e-14
4.461330230058836e-14
4.402417689868521e-14
4.343470274833966e-14
4.284490600298153e-14
4.225481281604055e-14
4.166444934094679e-14
4.107384173112987e-14
4.048301614001988e-14
3.989199872104642e-14
3.930081562763922e-14
3.870949301322839e-14
3.811805703124362e-14
3.752653383511471e-14
3.693494957827147e-14
3.634333041414373e-14
3.575170249616148e-14
3.516009197775447e-14
3.456852501235244e-14
3.397702775338526e-14
3.338562635428285e-14
3.279434696847484e-14
3.220321574939125e-14
3.161225885046172e-14
3.102150242511619e-14
3.043097262678463e-14
2.984069560889654e-14
2.925069752488208e-14
2.866100452817085e-14
2.807164277219279e-14
2.748263841037764e-14
2.689401759615535e-14
2.630580648295556e-14
2.571803122420835e-14
2.513071797334344e-14
2.454389288379043e-14
2.395758210897952e-14
2.337181180234029e-14
2.278660811730273e-14
2.220199720729639e-14
2.161800522575138e-14
2.103465832609750e-14
2.045198266176447e-14
1.987000438618224e-14
1.928874965278050e-14
1.870824461498908e-14
1.812851542623796e-14
1.754958823995680e-14
1.697148920957559e-14
1.639424448852373e-14
1.581788023023189e-14
1.524242258812906e-14
1.466789771564548e-14
1.409433176621083e-14
1.352175089325510e-14
1.295018125020797e-14
1.237964899049939e-14
1.181018026755921e-14
1.124180123481697e-14
1.067453804570277e-14
1.010841685364631e-14
9.543463812077414e-15
8.979705074426186e-15
8.417166794122033e-15
7.855875124594924e-15
7.295856219274831e-15
6.737136231591720e-15
6.179741314974850e-15
5.623697622854619e-15
5.069031308660568e-15
4.515768525822529e-15
3.963935427770473e-15
3.413558167934077e-15
2.864662899743173e-15
2.317275776627736e-15
1.771422952017440e-15
1.227130579342121e-15
6.844248120317492e-16
1.433318035161514e-16
-3.961222927749880e-16
-9.339113234118471e-16
-1.470009134964446e-15
-2.004389574003104e-15
-2.537026487097997e-15
-3.067893720819149e-15
-3.596965121737031e-15
-4.124214536421361e-15
-4.649615811442618e-15
-5.173142793370820e-15
-5.694769328776443e-15
-6.214469264229204e-15
-6.732216446299733e-15
-7.247984721557897e-15
-7.761747936574019e-15
-8.273479937917966e-15
-8.783154572160527e-15
-9.290745685871254e-15
-9.796227125620600e-15
-1.029957273797878e-14
-1.080075636951589e-14
-1.129975186680203e-14
-1.179653307640752e-14
-1.229107384490247e-14
-1.278334801885696e-14
-1.327332944484126e-14
-1.376099196942559e-14
-1.424630943917998e-14
-1.472925570067477e-14
-1.520980460048003e-14
-1.568792998516588e-14
-1.616360570130263e-14
-1.663680559546039e-14
-1.710750351420925e-14
-1.757567330411952e-14
-1.804128881176132e-14
-1.850432388370473e-14
-1.896475236652002e-14
-1.942254810677740e-14
-1.987768495104699e-14
-2.033013674589890e-14
-2.077987733790342e-14
-2.122688057363068e-14
-2.167112029965076e-14
-2.211257036253398e-14
-2.255120460885044e-14
-2.298699688517026e-14
-2.341992103806372e-14
-2.384995091410089e-14
-2.427706035985205e-14
-2.470122322188725e-14
-2.512241334677678e-14
-2.554060458109072e-14
-2.595577077139933e-14
-2.636788576427273e-14
-2.677692340628104e-14
-2.718285754399456e-14
-2.758566202398338e-14
-2.798531069281763e-14
-2.838177739706759e-14
-2.877503598330338e-14
-2.916506029809512e-14
-2.955182418801302e-14
-2.993530149962734e-14
-3.031546607950816e-14
-3.069229177422563e-14
-3.106575243035001e-14
-3.143582189445142e-14
-3.180247401310000e-14
-3.216568263286600e-14
-3.252542160031956e-14
-3.288166476203079e-14
-3.323438596456997e-14
-3.358355905450717e-14
-3.392915787841261e-14
-3.427115628285652e-14
-3.460952811440901e-14
-3.494424721964021e-14
-3.527528744512040e-14
-3.560262263741968e-14
-3.592622664310820e-14
-3.624607330875621e-14
-3.656213648093385e-14
-3.687439000621123e-14
-3.718280773115862e-14
-3.748736350234611e-14
-3.778803116634391e-14
-3.808478456972223e-14
-3.837759755905121e-14
-3.866644398090102e-14
-3.895129768184178e-14
-3.923213250844376e-14
-3.950892230727709e-14
-3.978164092491189e-14
-4.005026220791843e-14
-4.031476000286682e-14
-4.057510815632721e-14
-4.083128051486981e-14
-4.108325092506483e-14
-4.133099323348236e-14
-4.157448128669265e-14
-4.181368893126584e-14
-4.204859001377206e-14
-4.227915838078156e-14
-4.250536787886446e-14
-4.272719235459093e-14
-4.294460565453119e-14
-4.315758162525538e-14
-4.336609411333364e-14
-4.357011696533618e-14
-4.376962402783318e-14
-4.396458914739479e-14
-4.415498617059123e-14
-4.434078894399261e-14
-4.452197131416914e-14
-4.469850712769096e-14
-4.487037023112827e-14
-4.503753447105125e-14
-4.519997369403003e-14
-4.535766174663483e-14
-4.551057247543578e-14
-4.565867972700310e-14
-4.580195734790689e-14
-4.594037918471742e-14
-4.607391908400480e-14
-4.620255089233923e-14
-4.632624845629085e-14
-4.644498562242985e-14
-4.655873623732640e-14
-4.666747414755065e-14
-4.677117319967283e-14
-4.686980724026307e-14
-4.696335011589153e-14
-4.705177567312843e-14
-4.713505775854391e-14
-4.721317021870813e-14
-4.728608690019130e-14
-4.735378164956357e-14
-4.741622831339511e-14
-4.747340073825610e-14
-4.752527277071671e-14
-4.757181825734710e-14
-4.761301104471748e-14
-4.764882497939798e-14
-4.767923390795879e-14
-4.770421167697009e-14
-4.772373213300203e-14
-4.773776912262481e-14
-4.774629649240858e-14
-4.774928808892353e-14
-4.774671775873982e-14
-4.773855934842762e-14
-4.772478670455712e-14
-4.770537367369846e-14
-4.768029410242186e-14
-4.764952183729745e-14
-4.761303072489542e-14
-4.757079461178595e-14
-4.752278734453920e-14
-4.746898276972533e-14
-4.740935473391455e-14
-4.734387708367700e-14
-4.727252366558285e-14
-4.719526832620230e-14
-4.711208491210549e-14
-4.702294726986262e-14
-4.692782924604388e-14
-4.682670468721938e-14
-4.671954743995933e-14
-4.660633135083392e-14
-4.648703026641327e-14
-4.636161803326761e-14
-4.623006849796710e-14
-4.609235550708187e-14
-4.594845290718211e-14
-4.579833454483802e-14
-4.564197426661974e-14
-4.547934591909747e-14
-4.531042334884136e-14
-4.513518040242165e-14
-4.495359092640841e-14
-4.476562876737187e-14
-4.457126777188217e-14
-4.437048178650951e-14
-4.416324465782404e-14
-4.394953023239601e-14
-4.372931235679549e-14
-4.350256487759267e-14
-4.326926164135775e-14
-4.302937649466089e-14
-4.278288328407228e-14
-4.252975585616215e-14
-4.226996805750053e-14
-4.200349373465770e-14
-4.173030673420377e-14
-4.145038090270894e-14
-4.116369008674338e-14
-4.087020813287735e-14
-4.056990888768084e-14
-4.026276619772415e-14
-3.994875390957740e-14
-3.962784586981080e-14
-3.930001592499449e-14
-3.896523792169872e-14
-3.862348570649360e-14
-3.827473312594931e-14
-3.791895402663595e-14
-3.755612225512378e-14
-3.718621165798294e-14
-3.680919608178363e-14
-3.642504937309609e-14
-3.603374537849033e-14
-3.563525794453659e-14
-3.522956091780504e-14
-3.481662814486587e-14
-3.439643347228933e-14
-3.396895074664549e-14
-3.353415381450456e-14
-3.309201652243662e-14
-3.264251271701194e-14
-3.218561624480065e-14
-3.172130095237295e-14
-3.124954068629914e-14
-3.077030929314910e-14
-3.028358061949319e-14
-2.978932851190155e-14
-2.928752681694435e-14
-2.877814938119184e-14
-2.826117005121411e-14
-2.773656267358136e-14
-2.720430109486366e-14
-2.666435916163126e-14
-2.611671072045437e-14
-2.556132961790310e-14
-2.499818970054767e-14
-2.442726481495839e-14
-2.384852880770513e-14
-2.326195552535818e-14
-2.266751881448778e-14
-2.206519252166411e-14
-2.145495049345726e-14
-2.083676657643751e-14
-2.021061461717496e-14
-1.957646846223969e-14
-1.893430195820198e-14
-1.828408895163199e-14
-1.762580328909989e-14
-1.695941881717603e-14
-1.628490938243024e-14
-1.560224883143286e-14
-1.491141101075403e-14
-1.421236976696410e-14
-1.350509894663297e-14
-1.278957239633103e-14
-1.206576396262840e-14
-1.133364749209510e-14
-1.059319683130138e-14
-9.844385826817498e-15
-9.087188325213547e-15
-8.321616779202522e-15
-7.548019657925400e-15
-6.766918443236463e-15
-5.978836046847764e-15
-5.184295380471145e-15
-4.383819355818561e-15
-3.577930884601628e-15
-2.767152878532525e-15
-1.952008249322641e-15
-1.133019908684042e-15
-3.107107683285699e-16
5.143962600319344e-16
1.341778264685628e-15
2.170912333920440e-15
3.001275556024994e-15
3.832345019287215e-15
4.663597811995263e-15
5.494511022437182e-15
6.324561738901357e-15
7.153227049675609e-15
7.979984043048554e-15
8.804309807308119e-15
9.625681430742468e-15
1.044357600163976e-14
1.125747060828814e-14
1.206684233897578e-14
1.287116828199061e-14
1.366992552562125e-14
1.446259115815562e-14
1.524864226788176e-14
1.602755594308808e-14
1.679880927206261e-14
1.756187934309328e-14
1.831624324446871e-14
1.906137806447682e-14
1.979676089140578e-14
2.052186881354375e-14
2.123617891917887e-14
2.193916829659913e-14
2.263031403409307e-14
2.330909321994865e-14
2.397498294245393e-14
2.462746028989727e-14
2.526600235056673e-14
2.589008621275030e-14
2.649918896473647e-14
2.709278769481323e-14
2.767035949126876e-14
2.823138144239119e-14
2.877533063646869e-14
2.930168416178936e-14
2.980991910664142e-14
3.029951255931303e-14
3.076994160809248e-14
3.122068334126767e-14
3.165121484712702e-14
3.206101321395842e-14
3.244955553005017e-14
3.281631888369043e-14
3.316078036316736e-14
3.348241705676921e-14
3.378070605278394e-14
3.405512443949989e-14
3.430514930520500e-14
3.453025773818770e-14
3.472992682673596e-14
3.490363365913804e-14
3.505085532368201e-14
3.517106890865611e-14
3.526375150234841e-14
3.532838019304717e-14
3.536443206904048e-14
3.537138421861653e-14
3.534871373006346e-14
3.529589769166944e-14
3.521241319172262e-14
3.509773731851121e-14
3.495134716032327e-14
3.477271980544705e-14
3.456133234217061e-14
3.431666185878224e-14
3.403818544357004e-14