/*--------------------------------*- C++ -*----------------------------------*\
| =========                 |                                                 |
| \\      /  F ield         | OpenFOAM: The Open Source CFD Toolbox           |
|  \\    /   O peration     | Version:  5.x                                   |
|   \\  /    A nd           | Web:      www.OpenFOAM.org                      |
|    \\/     M anipulation  |                                                 |
\*---------------------------------------------------------------------------*/
FoamFile
{
    version     2.0;
    format      ascii;
    class       volScalarField;
    location    "0";
    object       N2;
}
// * * * * * * * * * * * * * * * * * * * * * * * * * * * * * * * * * * * * * //

dimensions      [0 0 0 0 0 0 0];

internalField   nonuniform List<scalar>
4830
(
7.452197788584332e-01
7.452197788515680e-01
7.452197788447192e-01
7.452197788378870e-01
7.452197788310712e-01
7.452197788242717e-01
7.452197788174887e-01
7.452197788107220e-01
7.452197788039717e-01
7.452197787972377e-01
7.452197787905200e-01
7.452197787838186e-01
7.452197787771335e-01
7.452197787704646e-01
7.452197787638121e-01
7.452197787571757e-01
7.452197787505555e-01
7.452197787439515e-01
7.452197787373637e-01
7.452197787307919e-01
7.452197787242364e-01
7.452197787176970e-01
7.452197787111735e-01
7.452197787046663e-01
7.452197786981750e-01
7.452197786916998e-01
7.452197786852406e-01
7.452197786787974e-01
7.452197786723702e-01
7.452197786659589e-01
7.452197786595636e-01
7.452197786531842e-01
7.452197786468208e-01
7.452197786404732e-01
7.452197786341413e-01
7.452197786278255e-01
7.452197786215254e-01
7.452197786152411e-01
7.452197786089727e-01
7.452197786027200e-01
7.452197785964831e-01
7.452197785902619e-01
7.452197785840564e-01
7.452197785778667e-01
7.452197785716925e-01
7.452197785655341e-01
7.452197785593914e-01
7.452197785532642e-01
7.452197785471526e-01
7.452197785410566e-01
7.452197785349762e-01
7.452197785289114e-01
7.452197785228620e-01
7.452197785168282e-01
7.452197785108099e-01
7.452197785048070e-01
7.452197784988197e-01
7.452197784928477e-01
7.452197784868912e-01
7.452197784809501e-01
7.452197784750244e-01
7.452197784691140e-01
7.452197784632190e-01
7.452197784573392e-01
7.452197784514749e-01
7.452197784456257e-01
7.452197784397919e-01
7.452197784339734e-01
7.452197784281700e-01
7.452197784223819e-01
7.452197784166089e-01
7.452197784108512e-01
7.452197784051086e-01
7.452197783993811e-01
7.452197783936687e-01
7.452197783879715e-01
7.452197783822894e-01
7.452197783766223e-01
7.452197783709703e-01
7.452197783653333e-01
7.452197783597112e-01
7.452197783541042e-01
7.452197783485123e-01
7.452197783429352e-01
7.452197783373730e-01
7.452197783318257e-01
7.452197783262935e-01
7.452197783207760e-01
7.452197783152734e-01
7.452197783097857e-01
7.452197783043127e-01
7.452197782988547e-01
7.452197782934114e-01
7.452197782879828e-01
7.452197782825690e-01
7.452197782771699e-01
7.452197782717855e-01
7.452197782664158e-01
7.452197782610609e-01
7.452197782557205e-01
7.452197782503949e-01
7.452197782450838e-01
7.452197782397872e-01
7.452197782345054e-01
7.452197782292380e-01
7.452197782239852e-01
7.452197782187470e-01
7.452197782135233e-01
7.452197782083140e-01
7.452197782031192e-01
7.452197781979388e-01
7.452197781927730e-01
7.452197781876214e-01
7.452197781824843e-01
7.452197781773616e-01
7.452197781722533e-01
7.452197781671592e-01
7.452197781620795e-01
7.452197781570141e-01
7.452197781519631e-01
7.452197781469262e-01
7.452197781419035e-01
7.452197781368952e-01
7.452197781319011e-01
7.452197781269211e-01
7.452197781219553e-01
7.452197781170037e-01
7.452197781120662e-01
7.452197781071428e-01
7.452197781022335e-01
7.452197780973382e-01
7.452197780924571e-01
7.452197780875900e-01
7.452197780827369e-01
7.452197780778979e-01
7.452197780730727e-01
7.452197780682616e-01
7.452197780634644e-01
7.452197780586811e-01
7.452197780539118e-01
7.452197780491564e-01
7.452197780444149e-01
7.452197780396871e-01
7.452197780349732e-01
7.452197780302732e-01
7.452197780255869e-01
7.452197780209144e-01
7.452197780162557e-01
7.452197780116108e-01
7.452197780069796e-01
7.452197780023621e-01
7.452197779977582e-01
7.452197779931680e-01
7.452197779885915e-01
7.452197779840286e-01
7.452197779794794e-01
7.452197779749437e-01
7.452197779704215e-01
7.452197779659130e-01
7.452197779614180e-01
7.452197779569365e-01
7.452197779524685e-01
7.452197779480140e-01
7.452197779435730e-01
7.452197779391454e-01
7.452197779347313e-01
7.452197779303305e-01
7.452197779259432e-01
7.452197779215691e-01
7.452197779172085e-01
7.452197779128612e-01
7.452197779085272e-01
7.452197779042066e-01
7.452197778998991e-01
7.452197778956050e-01
7.452197778913241e-01
7.452197778870564e-01
7.452197778828019e-01
7.452197778785606e-01
7.452197778743326e-01
7.452197778701176e-01
7.452197778659158e-01
7.452197778617270e-01
7.452197778575513e-01
7.452197778533888e-01
7.452197778492393e-01
7.452197778451028e-01
7.452197778409794e-01
7.452197778368689e-01
7.452197778327715e-01
7.452197778286870e-01
7.452197778246153e-01
7.452197778205567e-01
7.452197778165111e-01
7.452197778124782e-01
7.452197778084582e-01
7.452197778044510e-01
7.452197778004568e-01
7.452197777964753e-01
7.452197777925066e-01
7.452197777885508e-01
7.452197777846076e-01
7.452197777806772e-01
7.452197777767595e-01
7.452197777728545e-01
7.452197777689622e-01
7.452197777650825e-01
7.452197777612156e-01
7.452197777573613e-01
7.452197777535194e-01
7.452197777496903e-01
7.452197777458737e-01
7.452197777420696e-01
7.452197777382782e-01
7.452197777344992e-01
7.452197777307327e-01
7.452197777269787e-01
7.452197777232371e-01
7.452197777195080e-01
7.452197777157913e-01
7.452197777120870e-01
7.452197777083951e-01
7.452197777047156e-01
7.452197777010484e-01
7.452197776973936e-01
7.452197776937510e-01
7.452197776901207e-01
7.452197776865027e-01
7.452197776828970e-01
7.452197776793036e-01
7.452197776757222e-01
7.452197776721532e-01
7.452197776685964e-01
7.452197776650515e-01
7.452197776615190e-01
7.452197776579985e-01
7.452197776544902e-01
7.452197776509939e-01
7.452197776475098e-01
7.452197776440376e-01
7.452197776405775e-01
7.452197776371294e-01
7.452197776336933e-01
7.452197776302691e-01
7.452197776268570e-01
7.452197776234567e-01
7.452197776200684e-01
7.452197776166920e-01
7.452197776133275e-01
7.452197776099748e-01
7.452197776066340e-01
7.452197776033050e-01
7.452197775999878e-01
7.452197775966825e-01
7.452197775933889e-01
7.452197775901069e-01
7.452197775868368e-01
7.452197775835784e-01
7.452197775803316e-01
7.452197775770967e-01
7.452197775738733e-01
7.452197775706615e-01
7.452197775674614e-01
7.452197775642728e-01
7.452197775610959e-01
7.452197775579306e-01
7.452197775547768e-01
7.452197775516345e-01
7.452197775485037e-01
7.452197775453844e-01
7.452197775422765e-01
7.452197775391802e-01
7.452197775360953e-01
7.452197775330217e-01
7.452197775299596e-01
7.452197775269089e-01
7.452197775238696e-01
7.452197775208416e-01
7.452197775178249e-01
7.452197775148195e-01
7.452197775118253e-01
7.452197775088425e-01
7.452197775058709e-01
7.452197775029106e-01
7.452197774999614e-01
7.452197774970235e-01
7.452197774940967e-01
7.452197774911811e-01
7.452197774882766e-01
7.452197774853833e-01
7.452197774825010e-01
7.452197774796298e-01
7.452197774767697e-01
7.452197774739207e-01
7.452197774710826e-01
7.452197774682555e-01
7.452197774654395e-01
7.452197774626345e-01
7.452197774598404e-01
7.452197774570571e-01
7.452197774542848e-01
7.452197774515235e-01
7.452197774487730e-01
7.452197774460333e-01
7.452197774433046e-01
7.452197774405865e-01
7.452197774378794e-01
7.452197774351830e-01
7.452197774324973e-01
7.452197774298225e-01
7.452197774271584e-01
7.452197774245050e-01
7.452197774218622e-01
7.452197774192301e-01
7.452197774166087e-01
7.452197774139979e-01
7.452197774113978e-01
7.452197774088082e-01
7.452197774062291e-01
7.452197774036607e-01
7.452197774011029e-01
7.452197773985555e-01
7.452197773960186e-01
7.452197773934923e-01
7.452197773909763e-01
7.452197773884709e-01
7.452197773859759e-01
7.452197773834913e-01
7.452197773810171e-01
7.452197773785533e-01
7.452197773760998e-01
7.452197773736566e-01
7.452197773712238e-01
7.452197773688013e-01
7.452197773663890e-01
7.452197773639870e-01
7.452197773615953e-01
7.452197773592139e-01
7.452197773568425e-01
7.452197773544814e-01
7.452197773521304e-01
7.452197773497896e-01
7.452197773474590e-01
7.452197773451384e-01
7.452197773428280e-01
7.452197773405276e-01
7.452197773382373e-01
7.452197773359570e-01
7.452197773336868e-01
7.452197773314265e-01
7.452197773291763e-01
7.452197773269360e-01
7.452197773247056e-01
7.452197773224852e-01
7.452197773202747e-01
7.452197773180741e-01
7.452197773158833e-01
7.452197773137024e-01
7.452197773115313e-01
7.452197773093701e-01
7.452197773072187e-01
7.452197773050769e-01
7.452197773029451e-01
7.452197773008229e-01
7.452197772987105e-01
7.452197772966077e-01
7.452197772945147e-01
7.452197772924313e-01
7.452197772903576e-01
7.452197772882935e-01
7.452197772862390e-01
7.452197772841941e-01
7.452197772821587e-01
7.452197772801330e-01
7.452197772781167e-01
7.452197772761100e-01
7.452197772741128e-01
7.452197772721251e-01
7.452197772701468e-01
7.452197772681780e-01
7.452197772662186e-01
7.452197772642686e-01
7.452197772623280e-01
7.452197772603968e-01
7.452197772584749e-01
7.452197772565623e-01
7.452197772546590e-01
7.452197772527651e-01
7.452197772508804e-01
7.452197772490050e-01
7.452197772471388e-01
7.452197772452819e-01
7.452197772434341e-01
7.452197772415956e-01
7.452197772397662e-01
7.452197772379460e-01
7.452197772361349e-01
7.452197772343329e-01
7.452197772325400e-01
7.452197772307561e-01
7.452197772289813e-01
7.452197772272156e-01
7.452197772254587e-01
7.452197772237110e-01
7.452197772219722e-01
7.452197772202425e-01
7.452197772185215e-01
7.452197772168097e-01
7.452197772151066e-01
7.452197772134124e-01
7.452197772117272e-01
7.452197772100507e-01
7.452197772083831e-01
7.452197772067243e-01
7.452197772050743e-01
7.452197772034330e-01
7.452197772018005e-01
7.452197772001768e-01
7.452197771985618e-01
7.452197771969554e-01
7.452197771953578e-01
7.452197771937689e-01
7.452197771921885e-01
7.452197771906168e-01
7.452197771890536e-01
7.452197771874992e-01
7.452197771859532e-01
7.452197771844158e-01
7.452197771828870e-01
7.452197771813666e-01
7.452197771798548e-01
7.452197771783514e-01
7.452197771768565e-01
7.452197771753699e-01
7.452197771738919e-01
7.452197771724223e-01
7.452197771709610e-01
7.452197771695080e-01
7.452197771680634e-01
7.452197771666272e-01
7.452197771651993e-01
7.452197771637796e-01
7.452197771623683e-01
7.452197771609652e-01
7.452197771595703e-01
7.452197771581837e-01
7.452197771568051e-01
7.452197771554349e-01
7.452197771540727e-01
7.452197771527187e-01
7.452197771513729e-01
7.452197771500351e-01
7.452197771487054e-01
7.452197771473837e-01
7.452197771460702e-01
7.452197771447647e-01
7.452197771434671e-01
7.452197771421776e-01
7.452197771408960e-01
7.452197771396224e-01
7.452197771383567e-01
7.452197771370990e-01
7.452197771358492e-01
7.452197771346072e-01
7.452197771333731e-01
7.452197771321468e-01
7.452197771309284e-01
7.452197771297178e-01
7.452197771285148e-01
7.452197771273198e-01
7.452197771261325e-01
7.452197771249529e-01
7.452197771237810e-01
7.452197771226168e-01
7.452197771214603e-01
7.452197771203114e-01
7.452197771191702e-01
7.452197771180366e-01
7.452197771169106e-01
7.452197771157921e-01
7.452197771146813e-01
7.452197771135780e-01
7.452197771124822e-01
7.452197771113940e-01
7.452197771103132e-01
7.452197771092398e-01
7.452197771081740e-01
7.452197771071156e-01
7.452197771060646e-01
7.452197771050210e-01
7.452197771039847e-01
7.452197771029558e-01
7.452197771019343e-01
7.452197771009200e-01
7.452197770999132e-01
7.452197770989135e-01
7.452197770979212e-01
7.452197770969361e-01
7.452197770959582e-01
7.452197770949875e-01
7.452197770940240e-01
7.452197770930677e-01
7.452197770921185e-01
7.452197770911765e-01
7.452197770902416e-01
7.452197770893139e-01
7.452197770883930e-01
7.452197770874794e-01
7.452197770865728e-01
7.452197770856732e-01
7.452197770847806e-01
7.452197770838950e-01
7.452197770830163e-01
7.452197770821447e-01
7.452197770812800e-01
7.452197770804221e-01
7.452197770795711e-01
7.452197770787271e-01
7.452197770778899e-01
7.452197770770594e-01
7.452197770762359e-01
7.452197770754192e-01
7.452197770746092e-01
7.452197770738059e-01
7.452197770730095e-01
7.452197770722198e-01
7.452197770714367e-01
7.452197770706603e-01
7.452197770698907e-01
7.452197770691277e-01
7.452197770683713e-01
7.452197770676215e-01
7.452197770668784e-01
7.452197770661417e-01
7.452197770654116e-01
7.452197770646882e-01
7.452197770639712e-01
7.452197770632607e-01
7.452197770625567e-01
7.452197770618592e-01
7.452197770611682e-01
7.452197770604835e-01
7.452197770598052e-01
7.452197770591333e-01
7.452197770584679e-01
7.452197770578087e-01
7.452197770571559e-01
7.452197770565094e-01
7.452197770558693e-01
7.452197770552355e-01
7.452197770546077e-01
7.452197770539863e-01
7.452197770533712e-01
7.452197770527622e-01
7.452197770521595e-01
7.452197770515628e-01
7.452197770509724e-01
7.452197770503880e-01
7.452197770498098e-01
7.452197770492377e-01
7.452197770486717e-01
7.452197770481117e-01
7.452197770475577e-01
7.452197770470098e-01
7.452197770464678e-01
7.452197770459319e-01
7.452197770454019e-01
7.452197770448779e-01
7.452197770443597e-01
7.452197770438475e-01
7.452197770433412e-01
7.452197770428407e-01
7.452197770423461e-01
7.452197770418573e-01
7.452197770413743e-01
7.452197770408971e-01
7.452197770404257e-01
7.452197770399601e-01
7.452197770395003e-01
7.452197770390461e-01
7.452197770385977e-01
7.452197770381549e-01
7.452197770377177e-01
7.452197770372863e-01
7.452197770368604e-01
7.452197770364402e-01
7.452197770360255e-01
7.452197770356165e-01
7.452197770352129e-01
7.452197770348150e-01
7.452197770344225e-01
7.452197770340355e-01
7.452197770336541e-01
7.452197770332780e-01
7.452197770329074e-01
7.452197770325423e-01
7.452197770321825e-01
7.452197770318281e-01
7.452197770314791e-01
7.452197770311354e-01
7.452197770307971e-01
7.452197770304642e-01
7.452197770301364e-01
7.452197770298139e-01
7.452197770294967e-01
7.452197770291847e-01
7.452197770288780e-01
7.452197770285764e-01
7.452197770282801e-01
7.452197770279889e-01
7.452197770277029e-01
7.452197770274219e-01
7.452197770271461e-01
7.452197770268754e-01
7.452197770266098e-01
7.452197770263491e-01
7.452197770260935e-01
7.452197770258430e-01
7.452197770255974e-01
7.452197770253568e-01
7.452197770251212e-01
7.452197770248905e-01
7.452197770246647e-01
7.452197770244439e-01
7.452197770242278e-01
7.452197770240168e-01
7.452197770238105e-01
7.452197770236090e-01
7.452197770234124e-01
7.452197770232205e-01
7.452197770230334e-01
7.452197770228510e-01
7.452197770226735e-01
7.452197770225006e-01
7.452197770223324e-01
7.452197770221689e-01
7.452197770220100e-01
7.452197770218558e-01
7.452197770217063e-01
7.452197770215613e-01
7.452197770214209e-01
7.452197770212851e-01
7.452197770211538e-01
7.452197770210270e-01
7.452197770209048e-01
7.452197770207871e-01
7.452197770206738e-01
7.452197770205650e-01
7.452197770204606e-01
7.452197770203607e-01
7.452197770202651e-01
7.452197770201739e-01
7.452197770200871e-01
7.452197770200046e-01
7.452197770199265e-01
7.452197770198526e-01
7.452197770197830e-01
7.452197770197178e-01
7.452197770196567e-01
7.452197770196000e-01
7.452197770195473e-01
7.452197770194989e-01
7.452197770194547e-01
7.452197770194147e-01
7.452197770193787e-01
7.452197770193469e-01
7.452197770193192e-01
7.452197770192955e-01
7.452197770192760e-01
7.452197770192606e-01
7.452197770192490e-01
7.452197770192416e-01
7.452197770192380e-01
7.452197770192386e-01
7.452197770192430e-01
7.452197770192514e-01
7.452197770192637e-01
7.452197770192798e-01
7.452197770192999e-01
7.452197770193238e-01
7.452197770193516e-01
7.452197770193831e-01
7.452197770194185e-01
7.452197770194577e-01
7.452197770195006e-01
7.452197770195473e-01
7.452197770195977e-01
7.452197770196518e-01
7.452197770197097e-01
7.452197770197712e-01
7.452197770198363e-01
7.452197770199050e-01
7.452197770199774e-01
7.452197770200535e-01
7.452197770201331e-01
7.452197770202162e-01
7.452197770203028e-01
7.452197770203931e-01
7.452197770204868e-01
7.452197770205840e-01
7.452197770206846e-01
7.452197770207888e-01
7.452197770208964e-01
7.452197770210073e-01
7.452197770211216e-01
7.452197770212393e-01
7.452197770213604e-01
7.452197770214849e-01
7.452197770216126e-01
7.452197770217437e-01
7.452197770218780e-01
7.452197770220156e-01
7.452197770221565e-01
7.452197770223005e-01
7.452197770224478e-01
7.452197770225982e-01
7.452197770227519e-01
7.452197770229086e-01
7.452197770230685e-01
7.452197770232316e-01
7.452197770233977e-01
7.452197770235669e-01
7.452197770237392e-01
7.452197770239145e-01
7.452197770240928e-01
7.452197770242741e-01
7.452197770244584e-01
7.452197770246457e-01
7.452197770248359e-01
7.452197770250291e-01
7.452197770252251e-01
7.452197770254241e-01
7.452197770256259e-01
7.452197770258306e-01
7.452197770260381e-01
7.452197770262484e-01
7.452197770264616e-01
7.452197770266775e-01
7.452197770268962e-01
7.452197770271176e-01
7.452197770273418e-01
7.452197770275686e-01
7.452197770277981e-01
7.452197770280303e-01
7.452197770282651e-01
7.452197770285026e-01
7.452197770287428e-01
7.452197770289855e-01
7.452197770292307e-01
7.452197770294785e-01
7.452197770297289e-01
7.452197770299818e-01
7.452197770302371e-01
7.452197770304949e-01
7.452197770307553e-01
7.452197770310180e-01
7.452197770312832e-01
7.452197770315508e-01
7.452197770318209e-01
7.452197770320932e-01
7.452197770323679e-01
7.452197770326449e-01
7.452197770329243e-01
7.452197770332059e-01
7.452197770334898e-01
7.452197770337761e-01
7.452197770340645e-01
7.452197770343550e-01
7.452197770346479e-01
7.452197770349430e-01
7.452197770352401e-01
7.452197770355395e-01
7.452197770358410e-01
7.452197770361446e-01
7.452197770364503e-01
7.452197770367580e-01
7.452197770370678e-01
7.452197770373796e-01
7.452197770376935e-01
7.452197770380093e-01
7.452197770383272e-01
7.452197770386469e-01
7.452197770389687e-01
7.452197770392923e-01
7.452197770396178e-01
7.452197770399454e-01
7.452197770402746e-01
7.452197770406058e-01
7.452197770409388e-01
7.452197770412736e-01
7.452197770416101e-01
7.452197770419485e-01
7.452197770422887e-01
7.452197770426305e-01
7.452197770429742e-01
7.452197770433194e-01
7.452197770436664e-01
7.452197770440150e-01
7.452197770443653e-01
7.452197770447172e-01
7.452197770450707e-01
7.452197770454257e-01
7.452197770457825e-01
7.452197770461406e-01
7.452197770465003e-01
7.452197770468616e-01
7.452197770472244e-01
7.452197770475886e-01
7.452197770479543e-01
7.452197770483214e-01
7.452197770486899e-01
7.452197770490600e-01
7.452197770494312e-01
7.452197770498039e-01
7.452197770501779e-01
7.452197770505533e-01
7.452197770509300e-01
7.452197770513080e-01
7.452197770516873e-01
7.452197770520678e-01
7.452197770524495e-01
7.452197770528324e-01
7.452197770532165e-01
7.452197770536019e-01
7.452197770539883e-01
7.452197770543760e-01
7.452197770547647e-01
7.452197770551546e-01
7.452197770555455e-01
7.452197770559376e-01
7.452197770563306e-01
7.452197770567247e-01
7.452197770571197e-01
7.452197770575159e-01
7.452197770579129e-01
7.452197770583109e-01
7.452197770587099e-01
7.452197770591097e-01
7.452197770595105e-01
7.452197770599122e-01
7.452197770603146e-01
7.452197770607181e-01
7.452197770611222e-01
7.452197770615272e-01
7.452197770619330e-01
7.452197770623396e-01
7.452197770627468e-01
7.452197770631548e-01
7.452197770635636e-01
7.452197770639730e-01
7.452197770643831e-01
7.452197770647939e-01
7.452197770652053e-01
7.452197770656173e-01
7.452197770660299e-01
7.452197770664432e-01
7.452197770668569e-01
7.452197770672713e-01
7.452197770676861e-01
7.452197770681015e-01
7.452197770685173e-01
7.452197770689336e-01
7.452197770693504e-01
7.452197770697676e-01
7.452197770701852e-01
7.452197770706033e-01
7.452197770710216e-01
7.452197770714404e-01
7.452197770718595e-01
7.452197770722789e-01
7.452197770726986e-01
7.452197770731186e-01
7.452197770735389e-01
7.452197770739594e-01
7.452197770743801e-01
7.452197770748011e-01
7.452197770752222e-01
7.452197770756436e-01
7.452197770760651e-01
7.452197770764867e-01
7.452197770769085e-01
7.452197770773302e-01
7.452197770777522e-01
7.452197770781742e-01
7.452197770785962e-01
7.452197770790182e-01
7.452197770794403e-01
7.452197770798623e-01
7.452197770802843e-01
7.452197770807063e-01
7.452197770811282e-01
7.452197770815500e-01
7.452197770819716e-01
7.452197770823933e-01
7.452197770828146e-01
7.452197770832359e-01
7.452197770836571e-01
7.452197770840779e-01
7.452197770844986e-01
7.452197770849190e-01
7.452197770853392e-01
7.452197770857590e-01
7.452197770861787e-01
7.452197770865980e-01
7.452197770870169e-01
7.452197770874356e-01
7.452197770878538e-01
7.452197770882717e-01
7.452197770886893e-01
7.452197770891063e-01
7.452197770895228e-01
7.452197770899390e-01
7.452197770903547e-01
7.452197770907698e-01
7.452197770911845e-01
7.452197770915986e-01
7.452197770920121e-01
7.452197770924252e-01
7.452197770928376e-01
7.452197770932494e-01
7.452197770936606e-01
7.452197770940711e-01
7.452197770944810e-01
7.452197770948902e-01
7.452197770952986e-01
7.452197770957064e-01
7.452197770961134e-01
7.452197770965197e-01
7.452197770969251e-01
7.452197770973299e-01
7.452197770977337e-01
7.452197770981368e-01
7.452197770985389e-01
7.452197770989403e-01
7.452197770993407e-01
7.452197770997403e-01
7.452197771001389e-01
7.452197771005366e-01
7.452197771009332e-01
7.452197771013290e-01
7.452197771017237e-01
7.452197771021174e-01
7.452197771025101e-01
7.452197771029017e-01
7.452197771032922e-01
7.452197771036817e-01
7.452197771040701e-01
7.452197771044572e-01
7.452197771048433e-01
7.452197771052281e-01
7.452197771056119e-01
7.452197771059944e-01
7.452197771063757e-01
7.452197771067557e-01
7.452197771071345e-01
7.452197771075120e-01
7.452197771078882e-01
7.452197771082630e-01
7.452197771086366e-01
7.452197771090088e-01
7.452197771093797e-01
7.452197771097491e-01
7.452197771101171e-01
7.452197771104837e-01
7.452197771108489e-01
7.452197771112126e-01
7.452197771115747e-01
7.452197771119354e-01
7.452197771122947e-01
7.452197771126523e-01
7.452197771130084e-01
7.452197771133628e-01
7.452197771137158e-01
7.452197771140671e-01
7.452197771144168e-01
7.452197771147648e-01
7.452197771151111e-01
7.452197771154558e-01
7.452197771157988e-01
7.452197771161400e-01
7.452197771164795e-01
7.452197771168172e-01
7.452197771171531e-01
7.452197771174873e-01
7.452197771178196e-01
7.452197771181501e-01
7.452197771184788e-01
7.452197771188055e-01
7.452197771191303e-01
7.452197771194533e-01
7.452197771197743e-01
7.452197771200934e-01
7.452197771204104e-01
7.452197771207256e-01
7.452197771210387e-01
7.452197771213498e-01
7.452197771216589e-01
7.452197771219659e-01
7.452197771222707e-01
7.452197771225736e-01
7.452197771228742e-01
7.452197771231728e-01
7.452197771234692e-01
7.452197771237634e-01
7.452197771240555e-01
7.452197771243453e-01
7.452197771246329e-01
7.452197771249183e-01
7.452197771252014e-01
7.452197771254822e-01
7.452197771257607e-01
7.452197771260369e-01
7.452197771263107e-01
7.452197771265823e-01
7.452197771268513e-01
7.452197771271181e-01
7.452197771273823e-01
7.452197771276442e-01
7.452197771279037e-01
7.452197771281606e-01
7.452197771284150e-01
7.452197771286670e-01
7.452197771289164e-01
7.452197771291633e-01
7.452197771294076e-01
7.452197771296494e-01
7.452197771298885e-01
7.452197771301250e-01
7.452197771303589e-01
7.452197771305901e-01
7.452197771308187e-01
7.452197771310445e-01
7.452197771312676e-01
7.452197771314881e-01
7.452197771317057e-01
7.452197771319207e-01
7.452197771321327e-01
7.452197771323420e-01
7.452197771325485e-01
7.452197771327521e-01
7.452197771329530e-01
7.452197771331508e-01
7.452197771333459e-01
7.452197771335379e-01
7.452197771337271e-01
7.452197771339133e-01
7.452197771340965e-01
7.452197771342767e-01
7.452197771344540e-01
7.452197771346281e-01
7.452197771347993e-01
7.452197771349673e-01
7.452197771351323e-01
7.452197771352942e-01
7.452197771354530e-01
7.452197771356086e-01
7.452197771357610e-01
7.452197771359104e-01
7.452197771360565e-01
7.452197771361994e-01
7.452197771363390e-01
7.452197771364754e-01
7.452197771366085e-01
7.452197771367384e-01
7.452197771368649e-01
7.452197771369881e-01
7.452197771371080e-01
7.452197771372244e-01
7.452197771373376e-01
7.452197771374472e-01
7.452197771375536e-01
7.452197771376564e-01
7.452197771377558e-01
7.452197771378517e-01
7.452197771379442e-01
7.452197771380331e-01
7.452197771381185e-01
7.452197771382003e-01
7.452197771382786e-01
7.452197771383532e-01
7.452197771384244e-01
7.452197771384917e-01
7.452197771385556e-01
7.452197771386158e-01
7.452197771386722e-01
7.452197771387249e-01
7.452197771387740e-01
7.452197771388193e-01
7.452197771388609e-01
7.452197771388986e-01
7.452197771389326e-01
7.452197771389628e-01
7.452197771389891e-01
7.452197771390117e-01
7.452197771390303e-01
7.452197771390451e-01
7.452197771390560e-01
7.452197771390628e-01
7.452197771390658e-01
7.452197771390648e-01
7.452197771390600e-01
7.452197771390510e-01
7.452197771390380e-01
7.452197771390210e-01
7.452197771390000e-01
7.452197771389748e-01
7.452197771389456e-01
7.452197771389123e-01
7.452197771388749e-01
7.452197771388334e-01
7.452197771387875e-01
7.452197771387377e-01
7.452197771386835e-01
7.452197771386251e-01
7.452197771385626e-01
7.452197771384957e-01
7.452197771384246e-01
7.452197771383492e-01
7.452197771382694e-01
7.452197771381853e-01
7.452197771380970e-01
7.452197771380041e-01
7.452197771379070e-01
7.452197771378054e-01
7.452197771376994e-01
7.452197771375889e-01
7.452197771374740e-01
7.452197771373547e-01
7.452197771372308e-01
7.452197771371023e-01
7.452197771369694e-01
7.452197771368320e-01
7.452197771366899e-01
7.452197771365432e-01
7.452197771363919e-01
7.452197771362360e-01
7.452197771360755e-01
7.452197771359103e-01
7.452197771357403e-01
7.452197771355658e-01
7.452197771353863e-01
7.452197771352023e-01
7.452197771350135e-01
7.452197771348199e-01
7.452197771346215e-01
7.452197771344182e-01
7.452197771342102e-01
7.452197771339972e-01
7.452197771337795e-01
7.452197771335568e-01
7.452197771333292e-01
7.452197771330967e-01
7.452197771328593e-01
7.452197771326169e-01
7.452197771323694e-01
7.452197771321171e-01
7.452197771318596e-01
7.452197771315971e-01
7.452197771313297e-01
7.452197771310570e-01
7.452197771307794e-01
7.452197771304966e-01
7.452197771302086e-01
7.452197771299156e-01
7.452197771296173e-01
7.452197771293139e-01
7.452197771290052e-01
7.452197771286914e-01
7.452197771283722e-01
7.452197771280478e-01
7.452197771277181e-01
7.452197771273832e-01
7.452197771270429e-01
7.452197771266973e-01
7.452197771263463e-01
7.452197771259900e-01
7.452197771256283e-01
7.452197771252611e-01
7.452197771248885e-01
7.452197771245105e-01
7.452197771241270e-01
7.452197771237380e-01
7.452197771233435e-01
7.452197771229435e-01
7.452197771225380e-01
7.452197771221268e-01
7.452197771217102e-01
7.452197771212878e-01
7.452197771208600e-01
7.452197771204264e-01
7.452197771199872e-01
7.452197771195423e-01
7.452197771190918e-01
7.452197771186355e-01
7.452197771181736e-01
7.452197771177058e-01
7.452197771172323e-01
7.452197771167530e-01
7.452197771162679e-01
7.452197771157770e-01
7.452197771152802e-01
7.452197771147776e-01
7.452197771142691e-01
7.452197771137548e-01
7.452197771132345e-01
7.452197771127083e-01
7.452197771121760e-01
7.452197771116379e-01
7.452197771110938e-01
7.452197771105440e-01
7.452197771099888e-01
7.452197771094287e-01
7.452197771088640e-01
7.452197771082950e-01
7.452197771077222e-01
7.452197771071459e-01
7.452197771065665e-01
7.452197771059844e-01
7.452197771053999e-01
7.452197771048135e-01
7.452197771042253e-01
7.452197771036360e-01
7.452197771030458e-01
7.452197771024550e-01
7.452197771018642e-01
7.452197771012735e-01
7.452197771006835e-01
7.452197771000946e-01
7.452197770995069e-01
7.452197770989211e-01
7.452197770983372e-01
7.452197770977559e-01
7.452197770971775e-01
7.452197770966021e-01
7.452197770960305e-01
7.452197770954628e-01
7.452197770948994e-01
7.452197770943408e-01
7.452197770937873e-01
7.452197770932392e-01
7.452197770926968e-01
7.452197770921608e-01
7.452197770916312e-01
7.452197770911088e-01
7.452197770905935e-01
7.452197770900859e-01
7.452197770895864e-01
7.452197770890954e-01
7.452197770886131e-01
7.452197770881400e-01
7.452197770876765e-01
7.452197770872230e-01
7.452197770867797e-01
7.452197770863470e-01
7.452197770859255e-01
7.452197770855152e-01
7.452197770851169e-01
7.452197770847306e-01
7.452197770843569e-01
7.452197770839962e-01
7.452197770836486e-01
7.452197770833148e-01
7.452197770829949e-01
7.452197770826895e-01
7.452197770823987e-01
7.452197770821232e-01
7.452197770818632e-01
7.452197770816190e-01
7.452197770813911e-01
7.452197770811798e-01
7.452197770809855e-01
7.452197770808086e-01
7.452197770806493e-01
7.452197770805083e-01
7.452197770803858e-01
7.452197770802820e-01
7.452197770801975e-01
7.452197770801327e-01
7.452197770800878e-01
7.452197770800632e-01
7.452197770800594e-01
7.452197770800766e-01
7.452197770801153e-01
7.452197770801759e-01
7.452197770802587e-01
7.452197770803640e-01
7.452197770804924e-01
7.452197770806440e-01
7.452197770808193e-01
7.452197770810187e-01
7.452197770812427e-01
7.452197770814913e-01
7.452197770817651e-01
7.452197770820647e-01
7.452197770823900e-01
7.452197770827417e-01
7.452197770831200e-01
7.452197770835254e-01
7.452197770839583e-01
7.452197770844188e-01
7.452197770849076e-01
7.452197770854250e-01
7.452197770859712e-01
7.452197770865467e-01
7.452197770871519e-01
7.452197770877871e-01
7.452197770884527e-01
7.452197770891491e-01
7.452197770898766e-01
7.452197770906357e-01
7.452197770914266e-01
7.452197770922498e-01
7.452197770931057e-01
7.452197770939946e-01
7.452197770949168e-01
7.452197770958727e-01
7.452197770968628e-01
7.452197770978874e-01
7.452197770989469e-01
7.452197771000417e-01
7.452197771011720e-01
7.452197771023383e-01
7.452197771035410e-01
7.452197771047805e-01