/*--------------------------------*- C++ -*----------------------------------*\
| =========                 |                                                 |
| \\      /  F ield         | OpenFOAM: The Open Source CFD Toolbox           |
|  \\    /   O peration     | Version:  5.x                                   |
|   \\  /    A nd           | Web:      www.OpenFOAM.org                      |
|    \\/     M anipulation  |                                                 |
\*---------------------------------------------------------------------------*/
FoamFile
{
    version     2.0;
    format      ascii;
    class       volScalarField;
    location    "0";
    object       O;
}
// * * * * * * * * * * * * * * * * * * * * * * * * * * * * * * * * * * * * * //

dimensions      [0 0 0 0 0 0 0];

internalField   nonuniform List<scalar>
4830
(
1.942946168569279e-14
1.935764832188891e-14
1.928600633164526e-14
1.921453552124310e-14
1.914323569696368e-14
1.907210666508821e-14
1.900114823189797e-14
1.893036020367419e-14
1.885974238669810e-14
1.878929458725097e-14
1.871901661161403e-14
1.864890826606853e-14
1.857896935689570e-14
1.850919969037679e-14
1.843959907279305e-14
1.837016731042572e-14
1.830090420955605e-14
1.823180957646527e-14
1.816288321743463e-14
1.809412493874538e-14
1.802553454667876e-14
1.795711184751602e-14
1.788885664753838e-14
1.782076875302711e-14
1.775284797026344e-14
1.768509410552862e-14
1.761750696510390e-14
1.755008635527050e-14
1.748283208230970e-14
1.741574395250270e-14
1.734882177213078e-14
1.728206534747517e-14
1.721547448481711e-14
1.714904899043786e-14
1.708278867061864e-14
1.701669333164071e-14
1.695076277978531e-14
1.688499682133369e-14
1.681939526256708e-14
1.675395790976674e-14
1.668868456921389e-14
1.662357504718981e-14
1.655862914997571e-14
1.649384668385284e-14
1.642922745510246e-14
1.636477127000580e-14
1.630047793484412e-14
1.623634725589864e-14
1.617237903945061e-14
1.610857309178130e-14
1.604492921917191e-14
1.598144722790372e-14
1.591812692425796e-14
1.585496811451588e-14
1.579197060495870e-14
1.572913420186769e-14
1.566645871152409e-14
1.560394394020915e-14
1.554158969420409e-14
1.547939577979017e-14
1.541736200324862e-14
1.535548817086072e-14
1.529377408890767e-14
1.523221956367074e-14
1.517082440143117e-14
1.510958840847019e-14
1.504851139106906e-14
1.498759315550902e-14
1.492683350807131e-14
1.486623225503717e-14
1.480578920268785e-14
1.474550415730460e-14
1.468537692516865e-14
1.462540731256126e-14
1.456559512576366e-14
1.450594017105710e-14
1.444644225472282e-14
1.438710118304206e-14
1.432791676229607e-14
1.426888879876610e-14
1.421001709873339e-14
1.415130146847918e-14
1.409274171428471e-14
1.403433764243123e-14
1.397608905919998e-14
1.391799577087222e-14
1.386005758372917e-14
1.380227430405208e-14
1.374464573812220e-14
1.368717169222077e-14
1.362985197262904e-14
1.357268638562825e-14
1.351567473749964e-14
1.345881683452446e-14
1.340211248298395e-14
1.334556148915935e-14
1.328916365933191e-14
1.323291879978287e-14
1.317682671679348e-14
1.312088721664498e-14
1.306510010561861e-14
1.300946518999562e-14
1.295398227605725e-14
1.289865117008474e-14
1.284347167835935e-14
1.278844360716231e-14
1.273356676277486e-14
1.267884095147825e-14
1.262426597955372e-14
1.256984165328253e-14
1.251556777894590e-14
1.246144416282510e-14
1.240747061120134e-14
1.235364693035590e-14
1.229997292657000e-14
1.224644840612489e-14
1.219307317530181e-14
1.213984704038201e-14
1.208676980764673e-14
1.203384128337722e-14
1.198106127385472e-14
1.192842958536048e-14
1.187594602417572e-14
1.182361039658171e-14
1.177142250885969e-14
1.171938216729089e-14
1.166748917815657e-14
1.161574334773796e-14
1.156414448231632e-14
1.151269238817287e-14
1.146138687158887e-14
1.141022773884557e-14
1.135921479622419e-14
1.130834785000601e-14
1.125762670647224e-14
1.120705117190413e-14
1.115662105258294e-14
1.110633615478991e-14
1.105619628480627e-14
1.100620124891326e-14
1.095635085339215e-14
1.090664490452417e-14
1.085708320859056e-14
1.080766557187257e-14
1.075839180065144e-14
1.070926170120841e-14
1.066027507982473e-14
1.061143174278164e-14
1.056273149636040e-14
1.051417414684222e-14
1.046575950050838e-14
1.041748736364010e-14
1.036935754251863e-14
1.032136984342522e-14
1.027352407264110e-14
1.022582003644753e-14
1.017825754112574e-14
1.013083639295699e-14
1.008355639822251e-14
1.003641736320354e-14
9.989419094181342e-15
9.942561397437142e-15
9.895844079252197e-15
9.849266945907741e-15
9.802829803685022e-15
9.756532458865287e-15
9.710374717729776e-15
9.664356386559732e-15
9.618477271636401e-15
9.572737179241026e-15
9.527135915654850e-15
9.481673287159116e-15
9.436349100035071e-15
9.391163160563959e-15
9.346115275027017e-15
9.301205249705497e-15
9.256432890880638e-15
9.211798004833687e-15
9.167300397845886e-15
9.122939876198477e-15
9.078716246172707e-15
9.034629314049819e-15
8.990678886111057e-15
8.946864768637660e-15
8.903186767910883e-15
8.859644690211956e-15
8.816238341822131e-15
8.772967529022654e-15
8.729832058094763e-15
8.686831735319702e-15
8.643966366978719e-15
8.601235759353054e-15
8.558639718723955e-15
8.516178051372662e-15
8.473850563580420e-15
8.431657061628471e-15
8.389597351798063e-15
8.347671240370435e-15
8.305878533626836e-15
8.264219037848507e-15
8.222692559316689e-15
8.181298904312629e-15
8.140037879117574e-15
8.098909290012761e-15
8.057912943279436e-15
8.017048645198847e-15
7.976316202052233e-15
7.935715420120838e-15
7.895246105685908e-15
7.854908065028689e-15
7.814701104430419e-15
7.774625030172346e-15
7.734679648535712e-15
7.694864765801761e-15
7.655180188251737e-15
7.615625722166883e-15
7.576201173828446e-15
7.536906349517665e-15
7.497741055515789e-15
7.458705098104058e-15
7.419798283563717e-15
7.381020418176007e-15
7.342371308222177e-15
7.303850759983471e-15
7.265458579741123e-15
7.227194573776389e-15
7.189058548370508e-15
7.151050309804722e-15
7.113169664360275e-15
7.075416418318414e-15
7.037790377960381e-15
7.000291349567419e-15
6.962919139420773e-15
6.925673553801685e-15
6.888554398991402e-15
6.851561481271164e-15
6.814694606922219e-15
6.777953582225807e-15
6.741338213463175e-15
6.704848306915563e-15
6.668483668864219e-15
6.632244105590383e-15
6.596129423375302e-15
6.560139428500216e-15
6.524273927246375e-15
6.488532725895016e-15
6.452915630727386e-15
6.417422448024729e-15
6.382052984068290e-15
6.346807045139309e-15
6.311684437519032e-15
6.276684967488705e-15
6.241808441329567e-15
6.207054665322867e-15
6.172423445749844e-15
6.137914588891745e-15
6.103527901029813e-15
6.069263188445291e-15
6.035120257419424e-15
6.001098914233456e-15
5.967198965168628e-15
5.933420216506186e-15
5.899762474527377e-15
5.866225545513438e-15
5.832809235745616e-15
5.799513351505158e-15
5.766337699073302e-15
5.733282084731295e-15
5.700346314760383e-15
5.667530195441804e-15
5.634833533056808e-15
5.602256133886635e-15
5.569797804212529e-15
5.537458350315734e-15
5.505237578477497e-15
5.473135294979055e-15
5.441151306101658e-15
5.409285418126548e-15
5.377537437334968e-15
5.345907170008164e-15
5.314394422427375e-15
5.282999000873851e-15
5.251720711628830e-15
5.220559360973560e-15
5.189514755189283e-15
5.158586700557244e-15
5.127775003358685e-15
5.097079469874852e-15
5.066499906386985e-15
5.036036119176333e-15
5.005687914524136e-15
4.975455098711639e-15
4.945337478020087e-15
4.915334858730720e-15
4.885447047124786e-15
4.855673849483527e-15
4.826015072088188e-15
4.796470521220010e-15
4.767040003160239e-15
4.737723324190119e-15
4.708520290590892e-15
4.679430708643804e-15
4.650454384630096e-15
4.621591124831017e-15
4.592840735527806e-15
4.564203023001706e-15
4.535677793533966e-15
4.507264853405827e-15
4.478964008898530e-15
4.450775066293323e-15
4.422697831871450e-15
4.394732111914149e-15
4.366877712702671e-15
4.339134440518256e-15
4.311502101642147e-15
4.283980502355591e-15
4.256569448939828e-15
4.229268747676106e-15
4.202078204845666e-15
4.174997626729750e-15
4.148026819609610e-15
4.121165589766480e-15
4.094413743481607e-15
4.067771087036238e-15
4.041237426711613e-15
4.014812568788978e-15
3.988496319549578e-15
3.962288485274652e-15
3.936188872245448e-15
3.910197286743208e-15
3.884313535049175e-15
3.858537423444596e-15
3.832868758210715e-15
3.807307345628769e-15
3.781852991980009e-15
3.756505503545677e-15
3.731264686607014e-15
3.706130347445268e-15
3.681102292341682e-15
3.656180327577495e-15
3.631364259433956e-15
3.606653894192305e-15
3.582049038133791e-15
3.557549497539654e-15
3.533155078691139e-15
3.508865587869488e-15
3.484680831355948e-15
3.460600615431758e-15
3.436624746378167e-15
3.412753030476416e-15
3.388985274007750e-15
3.365321283253412e-15
3.341760864494647e-15
3.318303824012695e-15
3.294949968088805e-15
3.271699103004215e-15
3.248551035040177e-15
3.225505570477928e-15
3.202562515598713e-15
3.179721676683777e-15
3.156982860014364e-15
3.134345871871716e-15
3.111810518537081e-15
3.089376606291698e-15
3.067043941416811e-15
3.044812330193667e-15
3.022681578903507e-15
3.000651493827578e-15
2.978721881247123e-15
2.956892547443381e-15
2.935163298697601e-15
2.913533941291026e-15
2.892004281504897e-15
2.870574125620462e-15
2.849243279918964e-15
2.828011550681642e-15
2.806878744189745e-15
2.785844666724516e-15
2.764909124567195e-15
2.744071923999031e-15
2.723332871301265e-15
2.702691772755142e-15
2.682148434641905e-15
2.661702663242796e-15
2.641354264839062e-15
2.621103045711946e-15
2.600948812142691e-15
2.580891370412542e-15
2.560930526802741e-15
2.541066087594532e-15
2.521297859069160e-15
2.501625647507869e-15
2.482049259191902e-15
2.462568500402503e-15
2.443183177420915e-15
2.423893096528383e-15
2.404698064006151e-15
2.385597886135461e-15
2.366592369197560e-15
2.347681319473688e-15
2.328864543245090e-15
2.310141846793012e-15
2.291513036398696e-15
2.272977918343384e-15
2.254536298908325e-15
2.236187984374757e-15
2.217932781023927e-15
2.199770495137079e-15
2.181700932995455e-15
2.163723900880300e-15
2.145839205072860e-15
2.128046651854373e-15
2.110346047506088e-15
2.092737198309247e-15
2.075219910545092e-15
2.057793990494871e-15
2.040459244439825e-15
2.023215478661198e-15
2.006062499440234e-15
1.989000113058176e-15
1.972028125796269e-15
1.955146343935757e-15
1.938354573757884e-15
1.921652621543892e-15
1.905040293575027e-15
1.888517396132529e-15
1.872083735497647e-15
1.855739117951622e-15
1.839483349775698e-15
1.823316237251118e-15
1.807237586659127e-15
1.791247204280968e-15
1.775344896397887e-15
1.759530469291125e-15
1.743803729241927e-15
1.728164482531537e-15
1.712612535441198e-15
1.697147694252155e-15
1.681769765245650e-15
1.666478554702929e-15
1.651273868905235e-15
1.636155514133811e-15
1.621123296669901e-15
1.606177022794749e-15
1.591316498789599e-15
1.576541530935696e-15
1.561851925514282e-15
1.547247488806600e-15
1.532728027093897e-15
1.518293346657414e-15
1.503943253778396e-15
1.489677554738086e-15
1.475496055817730e-15
1.461398563298569e-15
1.447384883461848e-15
1.433454822588810e-15
1.419608186960701e-15
1.405844782858763e-15
1.392164416564240e-15
1.378566894358377e-15
1.365052022522416e-15
1.351619607337601e-15
1.338269455085177e-15
1.325001372046387e-15
1.311815164502476e-15
1.298710638734686e-15
1.285687601024262e-15
1.272745857652447e-15
1.259885214900485e-15
1.247105479049621e-15
1.234406456381097e-15
1.221787953176159e-15
1.209249775716047e-15
1.196791730282009e-15
1.184413623155287e-15
1.172115260617125e-15
1.159896448948766e-15
1.147756994431455e-15
1.135696703346435e-15
1.123715381974950e-15
1.111812836598244e-15
1.099988873497561e-15
1.088243298954145e-15
1.076575919249238e-15
1.064986540664086e-15
1.053474969479931e-15
1.042041011978018e-15
1.030684474439592e-15
1.019405163145894e-15
1.008202884378169e-15
9.970774444176610e-16
9.860286495456142e-16
9.750563060432709e-16
9.641602201918776e-16
9.533401982726750e-16
9.425960465669092e-16
9.319275713558229e-16
9.213345789206595e-16
9.108168755426644e-16
9.003742675030802e-16
8.900065610831511e-16
8.797135625641208e-16
8.694950782272329e-16
8.593509143537308e-16
8.492808772248596e-16
8.392847731218624e-16
8.293624083259830e-16
8.195135891184651e-16
8.097381217805520e-16
8.000358125934887e-16
7.904064678385186e-16
7.808498937968850e-16
7.713658967498322e-16
7.619542829786039e-16
7.526148587644431e-16
7.433474303885949e-16
7.341518041323026e-16
7.250277862768099e-16
7.159751831033607e-16
7.069938008931980e-16
6.980834459275671e-16
6.892439244877110e-16
6.804750428548729e-16
6.717766073102985e-16
6.631484241352298e-16
6.545902996109105e-16
6.461020400185858e-16
6.376834516394986e-16
6.293343407548924e-16
6.210545136460126e-16
6.128437765941013e-16
6.047019358804024e-16
5.966287977861606e-16
5.886241685926189e-16
5.806878545810219e-16
5.728196620326132e-16
5.650193972286367e-16
5.572868664503351e-16
5.496218759789528e-16
5.420242320957350e-16
5.344937410819233e-16
5.270302092187629e-16
5.196334427874979e-16
5.123032480693704e-16
5.050394313456251e-16
4.978417988975071e-16
4.907101570062580e-16
4.836443119531232e-16
4.766440700193463e-16
4.697092374861699e-16
4.628396206348386e-16
4.560350257465963e-16
4.492952591026878e-16
4.426201269843552e-16
4.360094356728427e-16
4.294629914493953e-16
4.229806005952548e-16
4.165620693916663e-16
4.102072041198741e-16
4.039158110611210e-16
3.976876964966507e-16
3.915226667077082e-16
3.854205279755356e-16
3.793810865813776e-16
3.734041488064788e-16
3.674895209320820e-16
3.616370092394307e-16
3.558464200097700e-16
3.501175595243422e-16
3.444502340643919e-16
3.388442499111635e-16
3.332994133458998e-16
3.278155306498446e-16
3.223924081042428e-16
3.170298519903367e-16
3.117276685893707e-16
3.064856641825894e-16
3.013036450512361e-16
2.961814174765539e-16
2.911187877397872e-16
2.861155621221804e-16
2.811715469049761e-16
2.762865483694188e-16
2.714603727967526e-16
2.666928264682205e-16
2.619837156650663e-16
2.573328466685350e-16
2.527400257598691e-16
2.482050592203132e-16
2.437277533311110e-16
2.393079143735055e-16
2.349453486287412e-16
2.306398623780624e-16
2.263912619027117e-16
2.221993534839339e-16
2.180639434029724e-16
2.139848379410710e-16
2.099618433794733e-16
2.059947659994240e-16
2.020834120821656e-16
1.982275879089428e-16
1.944270997609992e-16
1.906817539195784e-16
1.869913566659244e-16
1.833557142812809e-16
1.797746330468921e-16
1.762479192440011e-16
1.727753791538525e-16
1.693568190576895e-16
1.659920452367561e-16
1.626808639722958e-16
1.594230815455532e-16
1.562185042377713e-16
1.530669383301942e-16
1.499681901040660e-16
1.469220658406300e-16
1.439283718211300e-16
1.409869143268103e-16
1.380974996389142e-16
1.352599340386860e-16
1.324740238073693e-16
1.297395752262073e-16
1.270563945764446e-16
1.244242881393252e-16
1.218430621960920e-16
1.193125230279894e-16
1.168324769162614e-16
1.144027301421507e-16
1.120230889869023e-16
1.096933597317591e-16
1.074133486579663e-16
1.051828620467660e-16
1.030017061794030e-16
1.008696873371208e-16
9.878661180116350e-17
9.675228585277444e-17
9.476651577319807e-17
9.282910784367725e-17
9.093986834545663e-17
8.909860355977986e-17
8.730511976789062e-17
8.555922325103236e-17
8.386072029044953e-17
8.220941716738539e-17
8.060512016308401e-17
7.904763555878943e-17
7.753676963574492e-17
7.607232867519454e-17
7.465411895838233e-17
7.328194676655157e-17
7.195561838094631e-17
7.067494008281060e-17
6.943971815338830e-17
6.824975887392267e-17
6.710486852565758e-17
6.600485338983747e-17
6.494951974770541e-17
6.393867388050585e-17
6.297212206948205e-17
6.204967059587807e-17
6.117112574093757e-17
6.033629378590479e-17
5.954498101202302e-17
5.879699370053629e-17
5.809213813268827e-17
5.743022058972262e-17
5.681104735288379e-17
5.623442470341504e-17
5.570015892256043e-17
5.520805629156342e-17
5.475792309166827e-17
5.434956560411842e-17
5.398279011015755e-17
5.365740289103011e-17
5.337321022797935e-17
5.313001840224914e-17
5.292763369508373e-17
5.276586238772638e-17
5.264451076142075e-17
5.256338509741130e-17
5.252229167694167e-17
5.252103678125534e-17
5.255942669159636e-17
5.263726768920839e-17
5.275436605533528e-17
5.291052807122070e-17
5.310556001810870e-17
5.333926817724313e-17
5.361145882986766e-17
5.392193825722595e-17
5.427051274056205e-17
5.465698856111962e-17
5.508117200014232e-17
5.554286933887460e-17
5.604188685855952e-17
5.657803084044095e-17
5.715110756576334e-17
5.776092331576994e-17
5.840728437170443e-17
5.908999701481104e-17
5.980886752633345e-17
6.056370218751491e-17
6.135430727960046e-17
6.218048908383279e-17
6.304205388145614e-17
6.393880795371436e-17
6.487055758185093e-17
6.583710904711009e-17
6.683826863073511e-17
6.787384261397044e-17
6.894363727805934e-17
7.004745890424586e-17
7.118511377377368e-17
7.235640816788703e-17
7.356114836782879e-17
7.479914065484400e-17
7.607019131017553e-17
7.737410661506724e-17
7.871069285076357e-17
8.007975629850780e-17
8.148110323954378e-17
8.291453995511536e-17
8.437987272646641e-17
8.587690783484078e-17
8.740545156148193e-17
8.896531018763431e-17
9.055628999454080e-17
9.217819726344604e-17
9.383083827559388e-17
9.551401931222720e-17
9.722754665459064e-17
9.897122658392767e-17
1.007448653814825e-16
1.025482693284983e-16
1.043812447062190e-16
1.062435977958886e-16
1.081351348787508e-16
1.100556622360500e-16
1.120049861490293e-16
1.139829128989327e-16
1.159892487670038e-16
1.180238000344870e-16
1.200863729826251e-16
1.221767738926627e-16
1.242948090458438e-16
1.264402847234115e-16
1.286130072066100e-16
1.308127827766828e-16
1.330394177148741e-16
1.352927183024275e-16
1.375724908205869e-16
1.398785415505959e-16
1.422106767736990e-16
1.445687027711389e-16
1.469524258241600e-16
1.493616522140066e-16
1.517961882219212e-16
1.542558401291488e-16
1.567404142169323e-16
1.592497167665162e-16
1.617835540591443e-16
1.643417323760602e-16
1.669240579985071e-16
1.695303372077303e-16
1.721603762849721e-16
1.748139815114769e-16
1.774909591684890e-16
1.801911155372510e-16
1.829142568990080e-16
1.856601895350027e-16
1.884287197264793e-16
1.912196537546821e-16
1.940327979008546e-16
1.968679584462400e-16
1.997249416720833e-16
2.026035538596277e-16
2.055036012901161e-16
2.084248902447941e-16
2.113672270049040e-16
2.143304178516899e-16
2.173142690663966e-16
2.203185869302670e-16
2.233431777245446e-16
2.263878477304735e-16
2.294524032292980e-16
2.325366505022622e-16
2.356403958306086e-16
2.387634454955813e-16
2.419056057784253e-16
2.450666829603829e-16
2.482464833226992e-16
2.514448131466170e-16
2.546614787133806e-16
2.578962863042338e-16
2.611490422004200e-16
2.644195526831838e-16
2.677076240337678e-16
2.710130625334170e-16
2.743356744633744e-16
2.776752661048851e-16
2.810316437391912e-16
2.844046136475368e-16
2.877939821111672e-16
2.911995554113247e-16
2.946211398292529e-16
2.980585416461967e-16
3.015115671434004e-16
3.049800226021053e-16
3.084637143035568e-16
3.119624485289996e-16
3.154760315596768e-16
3.190042696768307e-16
3.225469691617077e-16
3.261039362955497e-16
3.296749773596006e-16
3.332598986351052e-16
3.368585064033074e-16
3.404706069454492e-16
3.440960065427761e-16
3.477345114765310e-16
3.513859280279587e-16
3.550500624783030e-16
3.587267211088058e-16
3.624157102007128e-16
3.661168360352674e-16
3.698299048937133e-16
3.735547230572938e-16
3.772910968072529e-16
3.810388324248356e-16
3.847977361912839e-16
3.885676143878430e-16
3.923482732957553e-16
3.961395191962662e-16
3.999411583706182e-16
4.037529971000568e-16
4.075748416658239e-16
4.114064983491636e-16
4.152477734313212e-16
4.190984731935392e-16
4.229584039170608e-16
4.268273718831313e-16
4.307051833729945e-16
4.345916446678930e-16
4.384865620490700e-16
4.423897417977722e-16
4.463009901952411e-16
4.502201135227214e-16
4.541469180614567e-16
4.580812100926902e-16
4.620227958976661e-16
4.659714817576288e-16
4.699270739538216e-16
4.738893787674882e-16
4.778582024798726e-16
4.818333513722179e-16
4.858146317257692e-16
4.898018498217703e-16
4.937948119414635e-16
4.977933243660932e-16
5.017971933769041e-16
5.058062252551394e-16
5.098202262820423e-16
5.138390027388571e-16
5.178623609068291e-16
5.218901070671987e-16
5.259220475012130e-16
5.299579884901138e-16
5.339977363151452e-16
5.380410972575518e-16
5.420878775985782e-16
5.461378836194657e-16
5.501909216014594e-16
5.542467978258042e-16
5.583053185737416e-16
5.623662901265175e-16
5.664295187653740e-16
5.704948107715560e-16
5.745619724263080e-16
5.786308100108715e-16
5.827011298064914e-16
5.867727380944127e-16
5.908454411558782e-16
5.949190452721306e-16
5.989933567244168e-16
6.030681817939773e-16
6.071433267620578e-16
6.112185979099015e-16
6.152938015187525e-16
6.193687438698536e-16
6.234432312444496e-16
6.275170699237837e-16
6.315900661891017e-16
6.356620263216443e-16
6.397327566026569e-16
6.438020633133838e-16
6.478697527350680e-16
6.519356311489533e-16
6.559995048362835e-16
6.600611800783027e-16
6.641204631562552e-16
6.681771603513843e-16
6.722310779449330e-16
6.762820222181464e-16
6.803297994522663e-16
6.843742159285390e-16
6.884150779282084e-16
6.924521917325157e-16
6.964853636227058e-16
7.005143998800239e-16
7.045391067857128e-16
7.085592906210155e-16
7.125747576671768e-16
7.165853142054412e-16
7.205907665170507e-16
7.245909208832496e-16
7.285855835852822e-16
7.325745609043928e-16
7.365576591218237e-16
7.405346845188207e-16
7.445054433766255e-16
7.484697419764826e-16
7.524273865996371e-16
7.563781835273322e-16
7.603219390408102e-16
7.642584594213161e-16
7.681875509500948e-16
7.721090199083881e-16
7.760226725774402e-16
7.799283152384953e-16
7.838257541727968e-16
7.877147956615903e-16
7.915952459861183e-16
7.954669114276235e-16
7.993295982673510e-16
8.031831127865454e-16
8.070272612664481e-16
8.108618499883043e-16
8.146866852333589e-16
8.185015732828532e-16
8.223063204180319e-16
8.261007329201416e-16
8.298846170704222e-16
8.336577791501192e-16
8.374200254404770e-16
8.411711622227383e-16
8.449109957781474e-16
8.486393323879469e-16
8.523559783333841e-16
8.560607398956984e-16
8.597534233561355e-16
8.634338349959397e-16
8.671017810963545e-16
8.707570679386242e-16
8.743995018039916e-16
8.780288889737005e-16
8.816450357289953e-16
8.852477483511203e-16
8.888368331213177e-16
8.924120963208335e-16
8.959733442309086e-16
8.995203831327891e-16
9.030530193077195e-16
9.065710590369413e-16
9.100743086016981e-16
9.135625742832356e-16
9.170356623627970e-16
9.204933791216261e-16
9.239355308409663e-16
9.273619238020621e-16
9.307723642861569e-16
9.341666585744940e-16
9.375446129483183e-16
9.409060336888728e-16
9.442507270774011e-16
9.475784993951474e-16
9.508891569233560e-16
9.541825059432698e-16
9.574583527361334e-16
9.607165035831902e-16
9.639567647656836e-16
9.671789425648582e-16
9.703828432619575e-16
9.735682731382248e-16
9.767350384749048e-16
9.798829455532407e-16
9.830118006544761e-16
9.861214100598553e-16
9.892115800506223e-16
9.922821169080205e-16
9.953328269132932e-16
9.983635163476853e-16
1.001373991492440e-15
1.004364058628801e-15
1.007333524038013e-15
1.010282194001318e-15
1.013209874799961e-15
1.016116372715187e-15
1.019001494028237e-15
1.021865045020357e-15
1.024706831972789e-15
1.027526661166779e-15
1.030324338883570e-15
1.033099671404405e-15
1.035852465010528e-15
1.038582525983184e-15
1.041289660603615e-15
1.043973675153066e-15
1.046634375912781e-15
1.049271569164003e-15
1.051885061187976e-15
1.054474658265944e-15
1.057040166679151e-15
1.059581392708840e-15
1.062098142636256e-15
1.064590222742642e-15
1.067057439309242e-15
1.069499598617299e-15
1.071916506948058e-15
1.074307970582763e-15
1.076673795802657e-15
1.079013788888983e-15
1.081327756122987e-15
1.083615503785911e-15
1.085876838158999e-15
1.088111565523496e-15
1.090319492160645e-15
1.092500424351689e-15
1.094654168377873e-15
1.096780530520441e-15
1.098879317060635e-15
1.100950334279701e-15
1.102993388458882e-15
1.105008285879421e-15
1.106994832822562e-15
1.108952835569550e-15
1.110882100401628e-15
1.112782433600040e-15
1.114653641446029e-15
1.116495530220840e-15
1.118307906205716e-15
1.120090575681901e-15
1.121843344930639e-15
1.123566020233174e-15
1.125258407870749e-15
1.126920314124608e-15
1.128551545275996e-15
1.130151907606155e-15
1.131721207396330e-15
1.133259250927765e-15
1.134765844481702e-15
1.136240794339388e-15
1.137683906782063e-15
1.139094988090974e-15
1.140473844547363e-15
1.141820282432474e-15
1.143134108027552e-15
1.144415127613839e-15
1.145663147472580e-15
1.146877973885019e-15
1.148059413132399e-15
1.149207271495964e-15
1.150321355256958e-15
1.151401470696625e-15
1.152447424096208e-15
1.153459021736951e-15
1.154436069900099e-15
1.155378374866895e-15
1.156285742918583e-15
1.157157980336406e-15
1.157994893401608e-15
1.158796288395434e-15
1.159561971599126e-15
1.160291749293930e-15
1.160985427761088e-15
1.161642813281844e-15
1.162263712137443e-15
1.162847930609128e-15
1.163395274978142e-15
1.163905551525730e-15
1.164378566533135e-15
1.164814126281602e-15
1.165212037052374e-15
1.165572105126694e-15
1.165894136785807e-15
1.166177938310956e-15
1.166423315983386e-15
1.166630076084340e-15
1.166798024895062e-15
1.166926968696795e-15
1.167016713770784e-15
1.167067066398272e-15
1.167077832860503e-15
1.167048819438720e-15
1.166979832414169e-15
1.166870678068092e-15
1.166721162681733e-15
1.166531092536337e-15
1.166300273913146e-15
1.166028513093405e-15
1.165715616358357e-15
1.165361389989247e-15
1.164965640267317e-15
1.164528173473813e-15
1.164048795889978e-15
1.163527313797054e-15
1.162963533476288e-15
1.162357261208921e-15
1.161708303276198e-15
1.161016465959363e-15
1.160281555539660e-15
1.159503378298331e-15
1.158681740516622e-15
1.157816448475776e-15
1.156907308457037e-15
1.155954126741648e-15
1.154956709610853e-15
1.153914863345897e-15
1.152828394228023e-15
1.151697108538474e-15
1.150520812558495e-15
1.149299312569329e-15
1.148032414852221e-15
1.146719925688413e-15
1.145361651359150e-15
1.143957398145676e-15
1.142506972329234e-15
1.141010180191069e-15
1.139466828012423e-15
1.137876722074541e-15
1.136239668658667e-15
1.134555474046044e-15
1.132823944517917e-15
1.131044886355528e-15
1.129218105840122e-15
1.127343409252943e-15
1.125420602875234e-15
1.123449492988240e-15
1.121429885873203e-15
1.119361587811368e-15
1.117244405083979e-15
1.115078143972280e-15
1.112862610757514e-15
1.110597611720925e-15
1.108282953143756e-15
1.105918441307252e-15
1.103503882492657e-15
1.101039082981215e-15
1.098523849054167e-15
1.095957986992760e-15
1.093341303078237e-15
1.090673603591841e-15
1.087954694814816e-15
1.085184383028407e-15
1.082362474513856e-15
1.079488775552409e-15
1.076563092425307e-15
1.073585231413796e-15
1.070554998799119e-15
1.067472200862519e-15
1.064336643885243e-15
1.061148134148531e-15
1.057906477933628e-15
1.054611481521778e-15
1.051262951194226e-15
1.047860693232214e-15
1.044404513916988e-15
1.040894219529789e-15
1.037329616351862e-15
1.033710510664451e-15
1.030036708748800e-15
1.026308016886152e-15
1.022524241357753e-15
1.018685188444844e-15
1.014790664428670e-15
1.010840475590475e-15
1.006834428211502e-15
1.002772328572996e-15
9.986539829562005e-16
9.944791976423589e-16
9.902477789127145e-16
9.859595330485116e-16
9.816142663309941e-16
9.772117850414058e-16
9.727518954609907e-16
9.682344038709935e-16
9.636591165526559e-16
9.590258397872224e-16
9.543343798559373e-16
9.495845430400448e-16
9.447761356207874e-16
9.399089638794106e-16
9.349828340971571e-16
9.299975525552701e-16
9.249529255349943e-16
9.198487593175732e-16
9.146848601842505e-16
9.094610344162721e-16
9.041770882948785e-16
8.988328281013149e-16
8.934280601168251e-16
8.879625906226538e-16
8.824362259000430e-16
8.768487722302385e-16
8.712000358944831e-16
8.654898231740197e-16
8.597179403500931e-16
8.538841937039470e-16
8.479883895168251e-16
8.420306210333595e-16
8.360134791424871e-16
8.299408407542498e-16
8.238165934069678e-16
8.176446246389600e-16
8.114288219885456e-16
8.051730729940418e-16
7.988812651937697e-16
7.925572861260445e-16
7.862050233291867e-16
7.798283643415148e-16
7.734311967013477e-16
7.670174079470038e-16
7.605908856168036e-16
7.541555172490623e-16
7.477151903821003e-16
7.412737925542363e-16
7.348352113037897e-16
7.284033341690776e-16
7.219820486884211e-16
7.155752424001354e-16
7.091868028425410e-16
7.028206175539564e-16
6.964805740727005e-16
6.901705599370919e-16
6.838944626854491e-16
6.776561698560926e-16
6.714595689873375e-16
6.653085476175043e-16
6.592069932849125e-16
6.531587935278790e-16
6.471678358847234e-16
6.412380078937659e-16
6.353731970933220e-16
6.295772910217119e-16
6.238541772172542e-16
6.182077432182678e-16
6.126418765630712e-16
6.071604647899844e-16
6.017673954373234e-16
5.964665560434081e-16
5.912618341465580e-16
5.861571172850903e-16
5.811562929973244e-16
5.762632488215802e-16
5.714818722961738e-16
5.668160509594250e-16
5.622696723496527e-16
5.578466240051756e-16
5.535507934643120e-16
5.493860682653816e-16
5.453563359467020e-16
5.414654840465923e-16
5.377174001033697e-16
5.341159716553553e-16
5.306650862408656e-16
5.273686313982212e-16
5.242304946657397e-16
5.212545635817399e-16
5.184447256845403e-16
5.158048685124591e-16
5.133388796038161e-16
5.110506464969288e-16
5.089440567301177e-16
5.070229978416990e-16
5.052913573699933e-16
5.037530228533179e-16
5.024118818299925e-16
5.012718218383352e-16
5.003367304166652e-16
4.996104951033004e-16
4.990970034365599e-16
4.988001429547624e-16
4.987238011962264e-16
4.988718656992706e-16
4.992482240022137e-16
4.998567636433740e-16
5.007013721610710e-16
5.017859370936226e-16
5.031143459793479e-16
5.046904863565653e-16
5.065182457635932e-16
5.086015117387507e-16
5.109441718203569e-16
5.135501135467294e-16
5.164232244561873e-16
5.195673920870501e-16
5.229865039776349e-16
5.266844476662610e-16
5.306651106912472e-16
5.349323805909134e-16
5.394901449035758e-16
5.443422911675556e-16
5.494927069211690e-16
5.549452797027355e-16
5.607038970505740e-16
5.667724465030034e-16
5.731548155983439e-16
5.798548918749105e-16
5.868765628710258e-16
5.942237161250046e-16
6.019002391751674e-16
6.099100195598329e-16
6.182569448173218e-16
6.269449024859485e-16
6.359777801040363e-16
6.453594652098990e-16
6.550938453418577e-16
6.651848080382308e-16
6.756362408373373e-16
6.864520312774987e-16
6.976360668970276e-16
7.091922352342492e-16
7.211244238274719e-16
7.334365202150281e-16
7.461324119352261e-16