/*--------------------------------*- C++ -*----------------------------------*\
| =========                 |                                                 |
| \\      /  F ield         | OpenFOAM: The Open Source CFD Toolbox           |
|  \\    /   O peration     | Version:  5.x                                   |
|   \\  /    A nd           | Web:      www.OpenFOAM.org                      |
|    \\/     M anipulation  |                                                 |
\*---------------------------------------------------------------------------*/
FoamFile
{
    version     2.0;
    format      ascii;
    class       volScalarField;
    location    "0";
    object       O2;
}
// * * * * * * * * * * * * * * * * * * * * * * * * * * * * * * * * * * * * * //

dimensions      [0 0 0 0 0 0 0];

internalField   nonuniform List<scalar>
4830
(
2.262685982586714e-01
2.262685982561330e-01
2.262685982536006e-01
2.262685982510743e-01
2.262685982485540e-01
2.262685982460399e-01
2.262685982435317e-01
2.262685982410297e-01
2.262685982385337e-01
2.262685982360437e-01
2.262685982335598e-01
2.262685982310819e-01
2.262685982286100e-01
2.262685982261441e-01
2.262685982236842e-01
2.262685982212303e-01
2.262685982187824e-01
2.262685982163405e-01
2.262685982139046e-01
2.262685982114746e-01
2.262685982090506e-01
2.262685982066326e-01
2.262685982042205e-01
2.262685982018143e-01
2.262685981994141e-01
2.262685981970198e-01
2.262685981946315e-01
2.262685981922490e-01
2.262685981898725e-01
2.262685981875018e-01
2.262685981851371e-01
2.262685981827782e-01
2.262685981804252e-01
2.262685981780782e-01
2.262685981757369e-01
2.262685981734015e-01
2.262685981710720e-01
2.262685981687483e-01
2.262685981664305e-01
2.262685981641185e-01
2.262685981618123e-01
2.262685981595119e-01
2.262685981572174e-01
2.262685981549287e-01
2.262685981526457e-01
2.262685981503686e-01
2.262685981480972e-01
2.262685981458316e-01
2.262685981435718e-01
2.262685981413177e-01
2.262685981390694e-01
2.262685981368269e-01
2.262685981345901e-01
2.262685981323590e-01
2.262685981301336e-01
2.262685981279140e-01
2.262685981257001e-01
2.262685981234919e-01
2.262685981212894e-01
2.262685981190926e-01
2.262685981169015e-01
2.262685981147161e-01
2.262685981125363e-01
2.262685981103622e-01
2.262685981081938e-01
2.262685981060310e-01
2.262685981038739e-01
2.262685981017224e-01
2.262685980995766e-01
2.262685980974363e-01
2.262685980953017e-01
2.262685980931727e-01
2.262685980910493e-01
2.262685980889315e-01
2.262685980868193e-01
2.262685980847127e-01
2.262685980826117e-01
2.262685980805162e-01
2.262685980784263e-01
2.262685980763419e-01
2.262685980742631e-01
2.262685980721899e-01
2.262685980701221e-01
2.262685980680600e-01
2.262685980660033e-01
2.262685980639521e-01
2.262685980619065e-01
2.262685980598663e-01
2.262685980578317e-01
2.262685980558025e-01
2.262685980537789e-01
2.262685980517607e-01
2.262685980497479e-01
2.262685980477407e-01
2.262685980457388e-01
2.262685980437425e-01
2.262685980417516e-01
2.262685980397660e-01
2.262685980377860e-01
2.262685980358113e-01
2.262685980338421e-01
2.262685980318782e-01
2.262685980299198e-01
2.262685980279668e-01
2.262685980260191e-01
2.262685980240768e-01
2.262685980221399e-01
2.262685980202084e-01
2.262685980182822e-01
2.262685980163613e-01
2.262685980144458e-01
2.262685980125357e-01
2.262685980106309e-01
2.262685980087314e-01
2.262685980068372e-01
2.262685980049483e-01
2.262685980030647e-01
2.262685980011865e-01
2.262685979993135e-01
2.262685979974458e-01
2.262685979955833e-01
2.262685979937261e-01
2.262685979918743e-01
2.262685979900276e-01
2.262685979881862e-01
2.262685979863500e-01
2.262685979845191e-01
2.262685979826934e-01
2.262685979808729e-01
2.262685979790577e-01
2.262685979772476e-01
2.262685979754427e-01
2.262685979736430e-01
2.262685979718486e-01
2.262685979700593e-01
2.262685979682751e-01
2.262685979664961e-01
2.262685979647223e-01
2.262685979629537e-01
2.262685979611901e-01
2.262685979594318e-01
2.262685979576785e-01
2.262685979559304e-01
2.262685979541874e-01
2.262685979524495e-01
2.262685979507167e-01
2.262685979489890e-01
2.262685979472664e-01
2.262685979455488e-01
2.262685979438364e-01
2.262685979421290e-01
2.262685979404267e-01
2.262685979387294e-01
2.262685979370372e-01
2.262685979353500e-01
2.262685979336679e-01
2.262685979319907e-01
2.262685979303186e-01
2.262685979286515e-01
2.262685979269894e-01
2.262685979253324e-01
2.262685979236803e-01
2.262685979220332e-01
2.262685979203911e-01
2.262685979187539e-01
2.262685979171217e-01
2.262685979154945e-01
2.262685979138722e-01
2.262685979122549e-01
2.262685979106425e-01
2.262685979090350e-01
2.262685979074325e-01
2.262685979058348e-01
2.262685979042421e-01
2.262685979026543e-01
2.262685979010714e-01
2.262685978994934e-01
2.262685978979202e-01
2.262685978963520e-01
2.262685978947886e-01
2.262685978932300e-01
2.262685978916764e-01
2.262685978901275e-01
2.262685978885835e-01
2.262685978870444e-01
2.262685978855100e-01
2.262685978839805e-01
2.262685978824558e-01
2.262685978809360e-01
2.262685978794209e-01
2.262685978779106e-01
2.262685978764050e-01
2.262685978749043e-01
2.262685978734084e-01
2.262685978719172e-01
2.262685978704307e-01
2.262685978689491e-01
2.262685978674721e-01
2.262685978659999e-01
2.262685978645325e-01
2.262685978630697e-01
2.262685978616117e-01
2.262685978601584e-01
2.262685978587098e-01
2.262685978572659e-01
2.262685978558266e-01
2.262685978543921e-01
2.262685978529622e-01
2.262685978515370e-01
2.262685978501165e-01
2.262685978487006e-01
2.262685978472894e-01
2.262685978458828e-01
2.262685978444808e-01
2.262685978430835e-01
2.262685978416908e-01
2.262685978403027e-01
2.262685978389192e-01
2.262685978375403e-01
2.262685978361660e-01
2.262685978347963e-01
2.262685978334312e-01
2.262685978320707e-01
2.262685978307147e-01
2.262685978293633e-01
2.262685978280164e-01
2.262685978266741e-01
2.262685978253363e-01
2.262685978240030e-01
2.262685978226743e-01
2.262685978213500e-01
2.262685978200303e-01
2.262685978187151e-01
2.262685978174044e-01
2.262685978160982e-01
2.262685978147965e-01
2.262685978134992e-01
2.262685978122065e-01
2.262685978109181e-01
2.262685978096343e-01
2.262685978083548e-01
2.262685978070799e-01
2.262685978058093e-01
2.262685978045432e-01
2.262685978032815e-01
2.262685978020242e-01
2.262685978007714e-01
2.262685977995229e-01
2.262685977982788e-01
2.262685977970391e-01
2.262685977958038e-01
2.262685977945729e-01
2.262685977933463e-01
2.262685977921241e-01
2.262685977909062e-01
2.262685977896927e-01
2.262685977884836e-01
2.262685977872787e-01
2.262685977860782e-01
2.262685977848820e-01
2.262685977836901e-01
2.262685977825026e-01
2.262685977813193e-01
2.262685977801403e-01
2.262685977789656e-01
2.262685977777951e-01
2.262685977766290e-01
2.262685977754671e-01
2.262685977743094e-01
2.262685977731560e-01
2.262685977720069e-01
2.262685977708620e-01
2.262685977697213e-01
2.262685977685848e-01
2.262685977674526e-01
2.262685977663245e-01
2.262685977652007e-01
2.262685977640810e-01
2.262685977629656e-01
2.262685977618543e-01
2.262685977607472e-01
2.262685977596442e-01
2.262685977585455e-01
2.262685977574508e-01
2.262685977563604e-01
2.262685977552740e-01
2.262685977541918e-01
2.262685977531137e-01
2.262685977520398e-01
2.262685977509699e-01
2.262685977499041e-01
2.262685977488425e-01
2.262685977477849e-01
2.262685977467314e-01
2.262685977456821e-01
2.262685977446367e-01
2.262685977435955e-01
2.262685977425583e-01
2.262685977415251e-01
2.262685977404960e-01
2.262685977394709e-01
2.262685977384498e-01
2.262685977374328e-01
2.262685977364198e-01
2.262685977354108e-01
2.262685977344058e-01
2.262685977334048e-01
2.262685977324077e-01
2.262685977314147e-01
2.262685977304256e-01
2.262685977294405e-01
2.262685977284594e-01
2.262685977274822e-01
2.262685977265090e-01
2.262685977255397e-01
2.262685977245743e-01
2.262685977236129e-01
2.262685977226553e-01
2.262685977217017e-01
2.262685977207520e-01
2.262685977198062e-01
2.262685977188643e-01
2.262685977179262e-01
2.262685977169921e-01
2.262685977160618e-01
2.262685977151354e-01
2.262685977142128e-01
2.262685977132941e-01
2.262685977123792e-01
2.262685977114682e-01
2.262685977105610e-01
2.262685977096576e-01
2.262685977087580e-01
2.262685977078623e-01
2.262685977069703e-01
2.262685977060822e-01
2.262685977051978e-01
2.262685977043172e-01
2.262685977034404e-01
2.262685977025673e-01
2.262685977016980e-01
2.262685977008325e-01
2.262685976999707e-01
2.262685976991127e-01
2.262685976982584e-01
2.262685976974078e-01
2.262685976965609e-01
2.262685976957177e-01
2.262685976948783e-01
2.262685976940425e-01
2.262685976932104e-01
2.262685976923821e-01
2.262685976915574e-01
2.262685976907363e-01
2.262685976899190e-01
2.262685976891053e-01
2.262685976882952e-01
2.262685976874888e-01
2.262685976866860e-01
2.262685976858869e-01
2.262685976850914e-01
2.262685976842994e-01
2.262685976835112e-01
2.262685976827264e-01
2.262685976819453e-01
2.262685976811678e-01
2.262685976803939e-01
2.262685976796235e-01
2.262685976788568e-01
2.262685976780935e-01
2.262685976773338e-01
2.262685976765777e-01
2.262685976758251e-01
2.262685976750761e-01
2.262685976743306e-01
2.262685976735886e-01
2.262685976728501e-01
2.262685976721151e-01
2.262685976713836e-01
2.262685976706556e-01
2.262685976699311e-01
2.262685976692100e-01
2.262685976684925e-01
2.262685976677784e-01
2.262685976670677e-01
2.262685976663605e-01
2.262685976656568e-01
2.262685976649565e-01
2.262685976642596e-01
2.262685976635662e-01
2.262685976628761e-01
2.262685976621895e-01
2.262685976615063e-01
2.262685976608264e-01
2.262685976601500e-01
2.262685976594769e-01
2.262685976588072e-01
2.262685976581409e-01
2.262685976574780e-01
2.262685976568184e-01
2.262685976561621e-01
2.262685976555092e-01
2.262685976548596e-01
2.262685976542134e-01
2.262685976535704e-01
2.262685976529308e-01
2.262685976522945e-01
2.262685976516615e-01
2.262685976510318e-01
2.262685976504053e-01
2.262685976497822e-01
2.262685976491623e-01
2.262685976485457e-01
2.262685976479323e-01
2.262685976473222e-01
2.262685976467153e-01
2.262685976461117e-01
2.262685976455113e-01
2.262685976449141e-01
2.262685976443202e-01
2.262685976437294e-01
2.262685976431419e-01
2.262685976425575e-01
2.262685976419764e-01
2.262685976413984e-01
2.262685976408236e-01
2.262685976402520e-01
2.262685976396835e-01
2.262685976391182e-01
2.262685976385560e-01
2.262685976379970e-01
2.262685976374411e-01
2.262685976368883e-01
2.262685976363387e-01
2.262685976357921e-01
2.262685976352487e-01
2.262685976347084e-01
2.262685976341711e-01
2.262685976336370e-01
2.262685976331059e-01
2.262685976325779e-01
2.262685976320530e-01
2.262685976315311e-01
2.262685976310123e-01
2.262685976304965e-01
2.262685976299838e-01
2.262685976294741e-01
2.262685976289674e-01
2.262685976284637e-01
2.262685976279631e-01
2.262685976274654e-01
2.262685976269708e-01
2.262685976264791e-01
2.262685976259904e-01
2.262685976255047e-01
2.262685976250220e-01
2.262685976245422e-01
2.262685976240654e-01
2.262685976235915e-01
2.262685976231206e-01
2.262685976226526e-01
2.262685976221875e-01
2.262685976217254e-01
2.262685976212661e-01
2.262685976208098e-01
2.262685976203564e-01
2.262685976199058e-01
2.262685976194582e-01
2.262685976190134e-01
2.262685976185715e-01
2.262685976181325e-01
2.262685976176963e-01
2.262685976172630e-01
2.262685976168325e-01
2.262685976164049e-01
2.262685976159801e-01
2.262685976155581e-01
2.262685976151389e-01
2.262685976147226e-01
2.262685976143090e-01
2.262685976138983e-01
2.262685976134903e-01
2.262685976130851e-01
2.262685976126827e-01
2.262685976122831e-01
2.262685976118862e-01
2.262685976114921e-01
2.262685976111007e-01
2.262685976107121e-01
2.262685976103262e-01
2.262685976099431e-01
2.262685976095626e-01
2.262685976091849e-01
2.262685976088099e-01
2.262685976084375e-01
2.262685976080679e-01
2.262685976077010e-01
2.262685976073367e-01
2.262685976069751e-01
2.262685976066162e-01
2.262685976062599e-01
2.262685976059063e-01
2.262685976055554e-01
2.262685976052071e-01
2.262685976048614e-01
2.262685976045183e-01
2.262685976041778e-01
2.262685976038400e-01
2.262685976035048e-01
2.262685976031721e-01
2.262685976028421e-01
2.262685976025146e-01
2.262685976021897e-01
2.262685976018674e-01
2.262685976015477e-01
2.262685976012305e-01
2.262685976009158e-01
2.262685976006037e-01
2.262685976002941e-01
2.262685975999871e-01
2.262685975996826e-01
2.262685975993806e-01
2.262685975990811e-01
2.262685975987841e-01
2.262685975984896e-01
2.262685975981975e-01
2.262685975979080e-01
2.262685975976209e-01
2.262685975973363e-01
2.262685975970542e-01
2.262685975967745e-01
2.262685975964973e-01
2.262685975962225e-01
2.262685975959501e-01
2.262685975956802e-01
2.262685975954126e-01
2.262685975951475e-01
2.262685975948848e-01
2.262685975946245e-01
2.262685975943666e-01
2.262685975941110e-01
2.262685975938579e-01
2.262685975936071e-01
2.262685975933587e-01
2.262685975931126e-01
2.262685975928689e-01
2.262685975926275e-01
2.262685975923885e-01
2.262685975921517e-01
2.262685975919173e-01
2.262685975916853e-01
2.262685975914555e-01
2.262685975912280e-01
2.262685975910028e-01
2.262685975907800e-01
2.262685975905594e-01
2.262685975903410e-01
2.262685975901250e-01
2.262685975899112e-01
2.262685975896996e-01
2.262685975894903e-01
2.262685975892832e-01
2.262685975890784e-01
2.262685975888758e-01
2.262685975886754e-01
2.262685975884772e-01
2.262685975882812e-01
2.262685975880875e-01
2.262685975878959e-01
2.262685975877065e-01
2.262685975875193e-01
2.262685975873342e-01
2.262685975871513e-01
2.262685975869706e-01
2.262685975867920e-01
2.262685975866156e-01
2.262685975864413e-01
2.262685975862691e-01
2.262685975860990e-01
2.262685975859311e-01
2.262685975857653e-01
2.262685975856016e-01
2.262685975854399e-01
2.262685975852804e-01
2.262685975851229e-01
2.262685975849675e-01
2.262685975848142e-01
2.262685975846629e-01
2.262685975845138e-01
2.262685975843666e-01
2.262685975842215e-01
2.262685975840784e-01
2.262685975839373e-01
2.262685975837983e-01
2.262685975836612e-01
2.262685975835262e-01
2.262685975833932e-01
2.262685975832621e-01
2.262685975831331e-01
2.262685975830060e-01
2.262685975828809e-01
2.262685975827578e-01
2.262685975826366e-01
2.262685975825174e-01
2.262685975824001e-01
2.262685975822847e-01
2.262685975821713e-01
2.262685975820598e-01
2.262685975819502e-01
2.262685975818426e-01
2.262685975817368e-01
2.262685975816329e-01
2.262685975815309e-01
2.262685975814308e-01
2.262685975813326e-01
2.262685975812362e-01
2.262685975811417e-01
2.262685975810491e-01
2.262685975809582e-01
2.262685975808693e-01
2.262685975807822e-01
2.262685975806968e-01
2.262685975806134e-01
2.262685975805317e-01
2.262685975804518e-01
2.262685975803738e-01
2.262685975802975e-01
2.262685975802230e-01
2.262685975801503e-01
2.262685975800793e-01
2.262685975800102e-01
2.262685975799427e-01
2.262685975798771e-01
2.262685975798131e-01
2.262685975797510e-01
2.262685975796905e-01
2.262685975796317e-01
2.262685975795747e-01
2.262685975795194e-01
2.262685975794658e-01
2.262685975794139e-01
2.262685975793637e-01
2.262685975793151e-01
2.262685975792683e-01
2.262685975792231e-01
2.262685975791795e-01
2.262685975791376e-01
2.262685975790974e-01
2.262685975790588e-01
2.262685975790218e-01
2.262685975789865e-01
2.262685975789528e-01
2.262685975789207e-01
2.262685975788902e-01
2.262685975788613e-01
2.262685975788340e-01
2.262685975788083e-01
2.262685975787841e-01
2.262685975787616e-01
2.262685975787405e-01
2.262685975787211e-01
2.262685975787032e-01
2.262685975786869e-01
2.262685975786720e-01
2.262685975786587e-01
2.262685975786470e-01
2.262685975786367e-01
2.262685975786280e-01
2.262685975786208e-01
2.262685975786150e-01
2.262685975786108e-01
2.262685975786080e-01
2.262685975786067e-01
2.262685975786069e-01
2.262685975786085e-01
2.262685975786116e-01
2.262685975786162e-01
2.262685975786222e-01
2.262685975786296e-01
2.262685975786384e-01
2.262685975786487e-01
2.262685975786604e-01
2.262685975786735e-01
2.262685975786879e-01
2.262685975787038e-01
2.262685975787211e-01
2.262685975787397e-01
2.262685975787597e-01
2.262685975787811e-01
2.262685975788038e-01
2.262685975788279e-01
2.262685975788533e-01
2.262685975788801e-01
2.262685975789082e-01
2.262685975789376e-01
2.262685975789684e-01
2.262685975790004e-01
2.262685975790338e-01
2.262685975790684e-01
2.262685975791044e-01
2.262685975791416e-01
2.262685975791801e-01
2.262685975792199e-01
2.262685975792609e-01
2.262685975793031e-01
2.262685975793467e-01
2.262685975793915e-01
2.262685975794375e-01
2.262685975794847e-01
2.262685975795332e-01
2.262685975795828e-01
2.262685975796337e-01
2.262685975796858e-01
2.262685975797390e-01
2.262685975797935e-01
2.262685975798491e-01
2.262685975799059e-01
2.262685975799639e-01
2.262685975800230e-01
2.262685975800833e-01
2.262685975801447e-01
2.262685975802073e-01
2.262685975802710e-01
2.262685975803358e-01
2.262685975804017e-01
2.262685975804688e-01
2.262685975805369e-01
2.262685975806062e-01
2.262685975806765e-01
2.262685975807479e-01
2.262685975808204e-01
2.262685975808940e-01
2.262685975809686e-01
2.262685975810443e-01
2.262685975811211e-01
2.262685975811988e-01
2.262685975812776e-01
2.262685975813575e-01
2.262685975814383e-01
2.262685975815202e-01
2.262685975816031e-01
2.262685975816869e-01
2.262685975817718e-01
2.262685975818577e-01
2.262685975819445e-01
2.262685975820323e-01
2.262685975821211e-01
2.262685975822108e-01
2.262685975823015e-01
2.262685975823931e-01
2.262685975824857e-01
2.262685975825792e-01
2.262685975826736e-01
2.262685975827690e-01
2.262685975828652e-01
2.262685975829624e-01
2.262685975830604e-01
2.262685975831594e-01
2.262685975832592e-01
2.262685975833599e-01
2.262685975834615e-01
2.262685975835639e-01
2.262685975836672e-01
2.262685975837714e-01
2.262685975838764e-01
2.262685975839822e-01
2.262685975840888e-01
2.262685975841963e-01
2.262685975843046e-01
2.262685975844137e-01
2.262685975845236e-01
2.262685975846342e-01
2.262685975847457e-01
2.262685975848580e-01
2.262685975849710e-01
2.262685975850848e-01
2.262685975851993e-01
2.262685975853146e-01
2.262685975854307e-01
2.262685975855475e-01
2.262685975856650e-01
2.262685975857832e-01
2.262685975859022e-01
2.262685975860219e-01
2.262685975861422e-01
2.262685975862633e-01
2.262685975863851e-01
2.262685975865075e-01
2.262685975866306e-01
2.262685975867545e-01
2.262685975868789e-01
2.262685975870040e-01
2.262685975871298e-01
2.262685975872562e-01
2.262685975873832e-01
2.262685975875109e-01
2.262685975876392e-01
2.262685975877681e-01
2.262685975878976e-01
2.262685975880278e-01
2.262685975881585e-01
2.262685975882897e-01
2.262685975884216e-01
2.262685975885541e-01
2.262685975886871e-01
2.262685975888207e-01
2.262685975889548e-01
2.262685975890895e-01
2.262685975892247e-01
2.262685975893604e-01
2.262685975894967e-01
2.262685975896335e-01
2.262685975897708e-01
2.262685975899086e-01
2.262685975900469e-01
2.262685975901857e-01
2.262685975903250e-01
2.262685975904647e-01
2.262685975906050e-01
2.262685975907457e-01
2.262685975908868e-01
2.262685975910284e-01
2.262685975911705e-01
2.262685975913129e-01
2.262685975914558e-01
2.262685975915992e-01
2.262685975917429e-01
2.262685975918871e-01
2.262685975920316e-01
2.262685975921766e-01
2.262685975923219e-01
2.262685975924676e-01
2.262685975926137e-01
2.262685975927602e-01
2.262685975929070e-01
2.262685975930541e-01
2.262685975932017e-01
2.262685975933495e-01
2.262685975934977e-01
2.262685975936462e-01
2.262685975937951e-01
2.262685975939442e-01
2.262685975940937e-01
2.262685975942434e-01
2.262685975943934e-01
2.262685975945437e-01
2.262685975946943e-01
2.262685975948452e-01
2.262685975949963e-01
2.262685975951478e-01
2.262685975952994e-01
2.262685975954513e-01
2.262685975956034e-01
2.262685975957557e-01
2.262685975959083e-01
2.262685975960611e-01
2.262685975962141e-01
2.262685975963673e-01
2.262685975965207e-01
2.262685975966743e-01
2.262685975968280e-01
2.262685975969820e-01
2.262685975971361e-01
2.262685975972903e-01
2.262685975974448e-01
2.262685975975993e-01
2.262685975977540e-01
2.262685975979089e-01
2.262685975980638e-01
2.262685975982189e-01
2.262685975983741e-01
2.262685975985294e-01
2.262685975986848e-01
2.262685975988403e-01
2.262685975989959e-01
2.262685975991515e-01
2.262685975993073e-01
2.262685975994631e-01
2.262685975996189e-01
2.262685975997748e-01
2.262685975999307e-01
2.262685976000867e-01
2.262685976002427e-01
2.262685976003987e-01
2.262685976005548e-01
2.262685976007109e-01
2.262685976008669e-01
2.262685976010230e-01
2.262685976011790e-01
2.262685976013350e-01
2.262685976014910e-01
2.262685976016470e-01
2.262685976018029e-01
2.262685976019588e-01
2.262685976021146e-01
2.262685976022704e-01
2.262685976024261e-01
2.262685976025817e-01
2.262685976027372e-01
2.262685976028927e-01
2.262685976030481e-01
2.262685976032033e-01
2.262685976033585e-01
2.262685976035135e-01
2.262685976036685e-01
2.262685976038232e-01
2.262685976039779e-01
2.262685976041324e-01
2.262685976042868e-01
2.262685976044410e-01
2.262685976045950e-01
2.262685976047489e-01
2.262685976049026e-01
2.262685976050561e-01
2.262685976052094e-01
2.262685976053626e-01
2.262685976055155e-01
2.262685976056682e-01
2.262685976058207e-01
2.262685976059730e-01
2.262685976061250e-01
2.262685976062768e-01
2.262685976064283e-01
2.262685976065796e-01
2.262685976067307e-01
2.262685976068814e-01
2.262685976070319e-01
2.262685976071822e-01
2.262685976073321e-01
2.262685976074817e-01
2.262685976076311e-01
2.262685976077801e-01
2.262685976079288e-01
2.262685976080772e-01
2.262685976082253e-01
2.262685976083730e-01
2.262685976085204e-01
2.262685976086674e-01
2.262685976088141e-01
2.262685976089605e-01
2.262685976091064e-01
2.262685976092520e-01
2.262685976093972e-01
2.262685976095420e-01
2.262685976096864e-01
2.262685976098304e-01
2.262685976099740e-01
2.262685976101171e-01
2.262685976102599e-01
2.262685976104022e-01
2.262685976105441e-01
2.262685976106855e-01
2.262685976108265e-01
2.262685976109670e-01
2.262685976111071e-01
2.262685976112467e-01
2.262685976113858e-01
2.262685976115244e-01
2.262685976116625e-01
2.262685976118001e-01
2.262685976119372e-01
2.262685976120739e-01
2.262685976122099e-01
2.262685976123455e-01
2.262685976124805e-01
2.262685976126150e-01
2.262685976127489e-01
2.262685976128823e-01
2.262685976130151e-01
2.262685976131473e-01
2.262685976132790e-01
2.262685976134101e-01
2.262685976135406e-01
2.262685976136705e-01
2.262685976137998e-01
2.262685976139285e-01
2.262685976140565e-01
2.262685976141839e-01
2.262685976143108e-01
2.262685976144369e-01
2.262685976145625e-01
2.262685976146873e-01
2.262685976148116e-01
2.262685976149351e-01
2.262685976150580e-01
2.262685976151802e-01
2.262685976153017e-01
2.262685976154225e-01
2.262685976155426e-01
2.262685976156621e-01
2.262685976157807e-01
2.262685976158987e-01
2.262685976160160e-01
2.262685976161325e-01
2.262685976162483e-01
2.262685976163633e-01
2.262685976164776e-01
2.262685976165911e-01
2.262685976167038e-01
2.262685976168158e-01
2.262685976169270e-01
2.262685976170374e-01
2.262685976171470e-01
2.262685976172558e-01
2.262685976173638e-01
2.262685976174709e-01
2.262685976175773e-01
2.262685976176828e-01
2.262685976177874e-01
2.262685976178913e-01
2.262685976179943e-01
2.262685976180964e-01
2.262685976181976e-01
2.262685976182980e-01
2.262685976183975e-01
2.262685976184962e-01
2.262685976185939e-01
2.262685976186907e-01
2.262685976187866e-01
2.262685976188817e-01
2.262685976189757e-01
2.262685976190689e-01
2.262685976191611e-01
2.262685976192524e-01
2.262685976193427e-01
2.262685976194321e-01
2.262685976195206e-01
2.262685976196080e-01
2.262685976196945e-01
2.262685976197800e-01
2.262685976198645e-01
2.262685976199480e-01
2.262685976200305e-01
2.262685976201120e-01
2.262685976201925e-01
2.262685976202720e-01
2.262685976203504e-01
2.262685976204278e-01
2.262685976205041e-01
2.262685976205794e-01
2.262685976206537e-01
2.262685976207268e-01
2.262685976207989e-01
2.262685976208700e-01
2.262685976209399e-01
2.262685976210087e-01
2.262685976210765e-01
2.262685976211431e-01
2.262685976212087e-01
2.262685976212730e-01
2.262685976213363e-01
2.262685976213985e-01
2.262685976214595e-01
2.262685976215194e-01
2.262685976215781e-01
2.262685976216356e-01
2.262685976216920e-01
2.262685976217472e-01
2.262685976218012e-01
2.262685976218540e-01
2.262685976219057e-01
2.262685976219561e-01
2.262685976220053e-01
2.262685976220533e-01
2.262685976221001e-01
2.262685976221457e-01
2.262685976221900e-01
2.262685976222331e-01
2.262685976222749e-01
2.262685976223154e-01
2.262685976223547e-01
2.262685976223928e-01
2.262685976224295e-01
2.262685976224650e-01
2.262685976224992e-01
2.262685976225320e-01
2.262685976225636e-01
2.262685976225939e-01
2.262685976226228e-01
2.262685976226504e-01
2.262685976226767e-01
2.262685976227017e-01
2.262685976227252e-01
2.262685976227475e-01
2.262685976227684e-01
2.262685976227879e-01
2.262685976228060e-01
2.262685976228228e-01
2.262685976228381e-01
2.262685976228521e-01
2.262685976228647e-01
2.262685976228758e-01
2.262685976228856e-01
2.262685976228939e-01
2.262685976229008e-01
2.262685976229062e-01
2.262685976229102e-01
2.262685976229128e-01
2.262685976229139e-01
2.262685976229135e-01
2.262685976229117e-01
2.262685976229084e-01
2.262685976229036e-01
2.262685976228973e-01
2.262685976228895e-01
2.262685976228803e-01
2.262685976228695e-01
2.262685976228571e-01
2.262685976228433e-01
2.262685976228279e-01
2.262685976228110e-01
2.262685976227925e-01
2.262685976227725e-01
2.262685976227509e-01
2.262685976227278e-01
2.262685976227031e-01
2.262685976226768e-01
2.262685976226489e-01
2.262685976226194e-01
2.262685976225883e-01
2.262685976225556e-01
2.262685976225213e-01
2.262685976224854e-01
2.262685976224478e-01
2.262685976224086e-01
2.262685976223678e-01
2.262685976223253e-01
2.262685976222811e-01
2.262685976222353e-01
2.262685976221878e-01
2.262685976221387e-01
2.262685976220878e-01
2.262685976220353e-01
2.262685976219811e-01
2.262685976219251e-01
2.262685976218675e-01
2.262685976218081e-01
2.262685976217470e-01
2.262685976216842e-01
2.262685976216197e-01
2.262685976215534e-01
2.262685976214853e-01
2.262685976214155e-01
2.262685976213439e-01
2.262685976212705e-01
2.262685976211954e-01
2.262685976211184e-01
2.262685976210397e-01
2.262685976209592e-01
2.262685976208768e-01
2.262685976207927e-01
2.262685976207067e-01
2.262685976206189e-01
2.262685976205293e-01
2.262685976204378e-01
2.262685976203445e-01
2.262685976202493e-01
2.262685976201522e-01
2.262685976200533e-01
2.262685976199525e-01
2.262685976198498e-01
2.262685976197453e-01
2.262685976196388e-01
2.262685976195304e-01
2.262685976194201e-01
2.262685976193079e-01
2.262685976191938e-01
2.262685976190777e-01
2.262685976189597e-01
2.262685976188398e-01
2.262685976187179e-01
2.262685976185941e-01
2.262685976184682e-01
2.262685976183404e-01
2.262685976182106e-01
2.262685976180789e-01
2.262685976179451e-01
2.262685976178093e-01
2.262685976176716e-01
2.262685976175318e-01
2.262685976173900e-01
2.262685976172462e-01
2.262685976171003e-01
2.262685976169524e-01
2.262685976168024e-01
2.262685976166504e-01
2.262685976164963e-01
2.262685976163402e-01
2.262685976161820e-01
2.262685976160217e-01
2.262685976158593e-01
2.262685976156948e-01
2.262685976155282e-01
2.262685976153595e-01
2.262685976151886e-01
2.262685976150157e-01
2.262685976148406e-01
2.262685976146634e-01
2.262685976144840e-01
2.262685976143025e-01
2.262685976141188e-01
2.262685976139329e-01
2.262685976137449e-01
2.262685976135548e-01
2.262685976133623e-01
2.262685976131678e-01
2.262685976129710e-01
2.262685976127720e-01
2.262685976125708e-01
2.262685976123675e-01
2.262685976121622e-01
2.262685976119551e-01
2.262685976117463e-01
2.262685976115359e-01
2.262685976113241e-01
2.262685976111110e-01
2.262685976108968e-01
2.262685976106815e-01
2.262685976104654e-01
2.262685976102486e-01
2.262685976100311e-01
2.262685976098132e-01
2.262685976095949e-01
2.262685976093765e-01
2.262685976091580e-01
2.262685976089397e-01
2.262685976087215e-01
2.262685976085037e-01
2.262685976082864e-01
2.262685976080698e-01
2.262685976078539e-01
2.262685976076390e-01
2.262685976074250e-01
2.262685976072123e-01
2.262685976070010e-01
2.262685976067910e-01
2.262685976065827e-01
2.262685976063762e-01
2.262685976061715e-01
2.262685976059688e-01
2.262685976057683e-01
2.262685976055701e-01
2.262685976053743e-01
2.262685976051811e-01
2.262685976049905e-01
2.262685976048029e-01
2.262685976046182e-01
2.262685976044366e-01
2.262685976042583e-01
2.262685976040834e-01
2.262685976039120e-01
2.262685976037443e-01
2.262685976035803e-01
2.262685976034204e-01
2.262685976032645e-01
2.262685976031128e-01
2.262685976029655e-01
2.262685976028227e-01
2.262685976026845e-01
2.262685976025511e-01
2.262685976024226e-01
2.262685976022991e-01
2.262685976021809e-01
2.262685976020679e-01
2.262685976019604e-01
2.262685976018586e-01
2.262685976017624e-01
2.262685976016721e-01
2.262685976015878e-01
2.262685976015097e-01
2.262685976014379e-01
2.262685976013724e-01
2.262685976013136e-01
2.262685976012614e-01
2.262685976012161e-01
2.262685976011777e-01
2.262685976011465e-01
2.262685976011225e-01
2.262685976011059e-01
2.262685976010968e-01
2.262685976010954e-01
2.262685976011018e-01
2.262685976011161e-01
2.262685976011385e-01
2.262685976011691e-01
2.262685976012080e-01
2.262685976012555e-01
2.262685976013115e-01
2.262685976013764e-01
2.262685976014501e-01
2.262685976015329e-01
2.262685976016248e-01
2.262685976017261e-01
2.262685976018368e-01
2.262685976019571e-01
2.262685976020872e-01
2.262685976022271e-01
2.262685976023769e-01
2.262685976025370e-01
2.262685976027073e-01
2.262685976028880e-01
2.262685976030793e-01
2.262685976032813e-01
2.262685976034941e-01
2.262685976037179e-01
2.262685976039528e-01
2.262685976041989e-01
2.262685976044564e-01
2.262685976047254e-01
2.262685976050060e-01
2.262685976052985e-01
2.262685976056029e-01
2.262685976059193e-01
2.262685976062480e-01
2.262685976065890e-01
2.262685976069425e-01
2.262685976073086e-01
2.262685976076874e-01
2.262685976080792e-01
2.262685976084840e-01
2.262685976089019e-01
2.262685976093332e-01
2.262685976097779e-01
2.262685976102362e-01