/*--------------------------------*- C++ -*----------------------------------*\
| =========                 |                                                 |
| \\      /  F ield         | OpenFOAM: The Open Source CFD Toolbox           |
|  \\    /   O peration     | Version:  5.x                                   |
|   \\  /    A nd           | Web:      www.OpenFOAM.org                      |
|    \\/     M anipulation  |                                                 |
\*---------------------------------------------------------------------------*/
FoamFile
{
    version     2.0;
    format      ascii;
    class       volScalarField;
    location    "0";
    object       OH;
}
// * * * * * * * * * * * * * * * * * * * * * * * * * * * * * * * * * * * * * //

dimensions      [0 0 0 0 0 0 0];

internalField   nonuniform List<scalar>
4830
(
-2.433507570329721e-13
-2.423943537697004e-13
-2.414402440098657e-13
-2.404884251598759e-13
-2.395388946261394e-13
-2.385916498150640e-13
-2.376466881330580e-13
-2.367040069865294e-13
-2.357636037818863e-13
-2.348254759255368e-13
-2.338896208238890e-13
-2.329560358833510e-13
-2.320247185103309e-13
-2.310956661112366e-13
-2.301688760924766e-13
-2.292443458604586e-13
-2.283220728215909e-13
-2.274020543822816e-13
-2.264842879489387e-13
-2.255687709279702e-13
-2.246555007257845e-13
-2.237444747487895e-13
-2.228356904033932e-13
-2.219291450960039e-13
-2.210248362330296e-13
-2.201227612208783e-13
-2.192229174659583e-13
-2.183253023746775e-13
-2.174299133534442e-13
-2.165367478086662e-13
-2.156458031467519e-13
-2.147570767741091e-13
-2.138705660971462e-13
-2.129862685222710e-13
-2.121041814558918e-13
-2.112243023044167e-13
-2.103466284742536e-13
-2.094711573718107e-13
-2.085978864034962e-13
-2.077268129757181e-13
-2.068579344948844e-13
-2.059912483674033e-13
-2.051267519996830e-13
-2.042644427981313e-13
-2.034043181691567e-13
-2.025463755191668e-13
-2.016906122545701e-13
-2.008370257817745e-13
-1.999856135071882e-13
-1.991363728372192e-13
-1.982893011782755e-13
-1.974443959367654e-13
-1.966016545190970e-13
-1.957610743316783e-13
-1.949226527809173e-13
-1.940863872732222e-13
-1.932522752150011e-13
-1.924203140126621e-13
-1.915905010726133e-13
-1.907628338012628e-13
-1.899373096050185e-13
-1.891139258902888e-13
-1.882926800634816e-13
-1.874735695310050e-13
-1.866565916992672e-13
-1.858417439746762e-13
-1.850290237636401e-13
-1.842184284725670e-13
-1.834099555078651e-13
-1.826036022759423e-13
-1.817993661832068e-13
-1.809972446360667e-13
-1.801972350409301e-13
-1.793993348042051e-13
-1.786035413322997e-13
-1.778098520316221e-13
-1.770182643085803e-13
-1.762287755695825e-13
-1.754413832210367e-13
-1.746560846693511e-13
-1.738728773209337e-13
-1.730917585821925e-13
-1.723127258595358e-13
-1.715357765593716e-13
-1.707609080881081e-13
-1.699881178521532e-13
-1.692174032579151e-13
-1.684487617118019e-13
-1.676821906202216e-13
-1.669176873895824e-13
-1.661552494262924e-13
-1.653948741367596e-13
-1.646365589273922e-13
-1.638803012045982e-13
-1.631260983747857e-13
-1.623739478443629e-13
-1.616238470197378e-13
-1.608757933073185e-13
-1.601297841135131e-13
-1.593858168447297e-13
-1.586438889073764e-13
-1.579039977078613e-13
-1.571661406525924e-13
-1.564303151479780e-13
-1.556965186004260e-13
-1.549647484163445e-13
-1.542350020021417e-13
-1.535072767642257e-13
-1.527815701090045e-13
-1.520578794428862e-13
-1.513362021722789e-13
-1.506165357035908e-13
-1.498988774432299e-13
-1.491832247976043e-13
-1.484695751731221e-13
-1.477579259761914e-13
-1.470482746132203e-13
-1.463406184906168e-13
-1.456349550147891e-13
-1.449312815921453e-13
-1.442295956290935e-13
-1.435298945320417e-13
-1.428321757073980e-13
-1.421364365615706e-13
-1.414426745009675e-13
-1.407508869319969e-13
-1.400610712610667e-13
-1.393732248945852e-13
-1.386873452389604e-13
-1.380034297006003e-13
-1.373214756859132e-13
-1.366414806013071e-13
-1.359634418531900e-13
-1.352873568479702e-13
-1.346132229920555e-13
-1.339410376918543e-13
-1.332707983537745e-13
-1.326025023842242e-13
-1.319361471896116e-13
-1.312717301763447e-13
-1.306092487508316e-13
-1.299487003194805e-13
-1.292900822886994e-13
-1.286333920648964e-13
-1.279786270544795e-13
-1.273257846638570e-13
-1.266748622994369e-13
-1.260258573676272e-13
-1.253787672748361e-13
-1.247335894274717e-13
-1.240903212319420e-13
-1.234489600946552e-13
-1.228095034220193e-13
-1.221719486204425e-13
-1.215362930963328e-13
-1.209025342560983e-13
-1.202706695061471e-13
-1.196406962528874e-13
-1.190126119027272e-13
-1.183864138620745e-13
-1.177620995373376e-13
-1.171396663349245e-13
-1.165191116612432e-13
-1.159004329227019e-13
-1.152836275257086e-13
-1.146686928766716e-13
-1.140556263819988e-13
-1.134444254480983e-13
-1.128350874813782e-13
-1.122276098882468e-13
-1.116219900751119e-13
-1.110182254483817e-13
-1.104163134144644e-13
-1.098162513797679e-13
-1.092180367507005e-13
-1.086216669336702e-13
-1.080271393350850e-13
-1.074344513613531e-13
-1.068436004188826e-13
-1.062545839140816e-13
-1.056673992533581e-13
-1.050820438431203e-13
-1.044985150897762e-13
-1.039168103997339e-13
-1.033369271794016e-13
-1.027588628351874e-13
-1.021826147734992e-13
-1.016081804007453e-13
-1.010355571233336e-13
-1.004647423476724e-13
-9.989573348016962e-14
-9.932852792723345e-14
-9.876312309527197e-14
-9.819951639069327e-14
-9.763770521990543e-14
-9.707768698931653e-14
-9.651945910533472e-14
-9.596301897436802e-14
-9.540836400282457e-14
-9.485549159711249e-14
-9.430439916363980e-14
-9.375508410881465e-14
-9.320754383904510e-14
-9.266177576073925e-14
-9.211777728030519e-14
-9.157554580415106e-14
-9.103507873868488e-14
-9.049637349031479e-14
-8.995942746544888e-14
-8.942423807049525e-14
-8.889080271186195e-14
-8.835911879595714e-14
-8.782918372918886e-14
-8.730099491796520e-14
-8.677454976869429e-14
-8.624984568778420e-14
-8.572688008164305e-14
-8.520565035667890e-14
-8.468615391929985e-14
-8.416838817591401e-14
-8.365235053292947e-14
-8.313803839675428e-14
-8.262544917379660e-14
-8.211458027046451e-14
-8.160542909316605e-14
-8.109799304830935e-14
-8.059226954230255e-14
-8.008825598155366e-14
-7.958594977247078e-14
-7.908534832146211e-14
-7.858644903493562e-14
-7.808924931929944e-14
-7.759374658096170e-14
-7.709993822633046e-14
-7.660782166181380e-14
-7.611739429381985e-14
-7.562865352875669e-14
-7.514159677303240e-14
-7.465622143305511e-14
-7.417252491523285e-14
-7.369050462597377e-14
-7.321015797168595e-14
-7.273148235877746e-14
-7.225447519365639e-14
-7.177913388273092e-14
-7.130545583240904e-14
-7.083343844909885e-14
-7.036307913920850e-14
-6.989437530914608e-14
-6.942732436531962e-14
-6.896192371413728e-14
-6.849817076200712e-14
-6.803606291533723e-14
-6.757559758053572e-14
-6.711677216401068e-14
-6.665958407217020e-14
-6.620403071142237e-14
-6.575010948817528e-14
-6.529781780883705e-14
-6.484715307981575e-14
-6.439811270751947e-14
-6.395069409835630e-14
-6.350489465873437e-14
-6.306071179506172e-14
-6.261814291374648e-14
-6.217718542119674e-14
-6.173783672382058e-14
-6.130009422802609e-14
-6.086395534022140e-14
-6.042941746681455e-14
-5.999647801421367e-14
-5.956513438882687e-14
-5.913538399706217e-14
-5.870722424532773e-14
-5.828065254003166e-14
-5.785566628758196e-14
-5.743226289438680e-14
-5.701043976685425e-14
-5.659019431139243e-14
-5.617152393440940e-14
-5.575442604231324e-14
-5.533889804151210e-14
-5.492493733841403e-14
-5.451254133942712e-14
-5.410170745095949e-14
-5.369243307941923e-14
-5.328471563121440e-14
-5.287855251275314e-14
-5.247394113044350e-14
-5.207087889069360e-14
-5.166936319991154e-14
-5.126939146450538e-14
-5.087096109088324e-14
-5.047406948545322e-14
-5.007871405462338e-14
-4.968489220480186e-14
-4.929260134239672e-14
-4.890183887381604e-14
-4.851260220546795e-14
-4.812488874376053e-14
-4.773869589510185e-14
-4.735402106590005e-14
-4.697086166256315e-14
-4.658921509149934e-14
-4.620907875911667e-14
-4.583045007182319e-14
-4.545332643602705e-14
-4.507770525813633e-14
-4.470358394455910e-14
-4.433095990170348e-14
-4.395983053597757e-14
-4.359019325378941e-14
-4.322204546154714e-14
-4.285538456565888e-14
-4.249020797253265e-14
-4.212651308857660e-14
-4.176429732019879e-14
-4.140355807380734e-14
-4.104429275581031e-14
-4.068649877261582e-14
-4.033017353063199e-14
-3.997531443626687e-14
-3.962191889592852e-14
-3.926998431602511e-14
-3.891950810296470e-14
-3.857048766315537e-14
-3.822292040300526e-14
-3.787680372892239e-14
-3.753213504731492e-14
-3.718891176459092e-14
-3.684713128715845e-14
-3.650679102142566e-14
-3.616788837380064e-14
-3.583042075069141e-14
-3.549438555850614e-14
-3.515978020365291e-14
-3.482660209253976e-14
-3.449484863157486e-14
-3.416451722716628e-14
-3.383560528572206e-14
-3.350811021365035e-14
-3.318202941735921e-14
-3.285736030325678e-14
-3.253410027775112e-14
-3.221224674725032e-14
-3.189179711816249e-14
-3.157274879689571e-14
-3.125509918985805e-14
-3.093884570345766e-14
-3.062398574410261e-14
-3.031051671820098e-14
-2.999843603216087e-14
-2.968774109239037e-14
-2.937842930529757e-14
-2.907049807729057e-14
-2.876394481477746e-14
-2.845876692416638e-14
-2.815496181186536e-14
-2.785252688428248e-14
-2.755145954782591e-14
-2.725175720890368e-14
-2.695341727392389e-14
-2.665643714929469e-14
-2.636081424142411e-14
-2.606654595672025e-14
-2.577362970159124e-14
-2.548206288244511e-14
-2.519184290569003e-14
-2.490296717773408e-14
-2.461543310498528e-14
-2.432923809385180e-14
-2.404437955074171e-14
-2.376085488206308e-14
-2.347866149422404e-14
-2.319779679363269e-14
-2.291825818669706e-14
-2.264004307982531e-14
-2.236314887942550e-14
-2.208757299190572e-14
-2.181331282367409e-14
-2.154036578113869e-14
-2.126872927070760e-14
-2.099840069878893e-14
-2.072937747179075e-14
-2.046165699612119e-14
-2.019523667818833e-14
-1.993011392440025e-14
-1.966628614116505e-14
-1.940375073489083e-14
-1.914250511198566e-14
-1.888254667885767e-14
-1.862387284191493e-14
-1.836648100756553e-14
-1.811036858221758e-14
-1.785553297227915e-14
-1.760197158415836e-14
-1.734968182426329e-14
-1.709866109900204e-14
-1.684890681478269e-14
-1.660041637801335e-14
-1.635318719510208e-14
-1.610721667245702e-14
-1.586250221648624e-14
-1.561904123359782e-14
-1.537683113019989e-14
-1.513586931270049e-14
-1.489615318750778e-14
-1.465768016102980e-14
-1.442044763967465e-14
-1.418445302985044e-14
-1.394969373796529e-14
-1.371616717042722e-14
-1.348387073364439e-14
-1.325280183402486e-14
-1.302295787797671e-14
-1.279433627190808e-14
-1.256693442222703e-14
-1.234074973534167e-14
-1.211577961766008e-14
-1.189202147559034e-14
-1.166947271554058e-14
-1.144813074391888e-14
-1.122799296713332e-14
-1.100905679159200e-14
-1.079131962370302e-14
-1.057477886987445e-14
-1.035943193651442e-14
-1.014527623003100e-14
-9.932309156832289e-15
-9.720528123326380e-15
-9.509930535921349e-15
-9.300513801025325e-15
-9.092275325046377e-15
-8.885212514392607e-15
-8.679322775472105e-15
-8.474603514692964e-15
-8.271052138463262e-15
-8.068666053191123e-15
-7.867442665284625e-15
-7.667379381151862e-15
-7.468473607200926e-15
-7.270722749839913e-15
-7.074124215476901e-15
-6.878675410520010e-15
-6.684373741377306e-15
-6.491216614456925e-15
-6.299201436166919e-15
-6.108325612915379e-15
-5.918586551110429e-15
-5.729981657160146e-15
-5.542508337472612e-15
-5.356163998455946e-15
-5.170946046518239e-15
-4.986851888067549e-15
-4.803878929512007e-15
-4.622024577259680e-15
-4.441286237718688e-15
-4.261661317297110e-15
-4.083147222403040e-15
-3.905741359444571e-15
-3.729441134829798e-15
-3.554243954966800e-15
-3.380147226263696e-15
-3.207148355128567e-15
-3.035244747969506e-15
-2.864433811194606e-15
-2.694712951211961e-15
-2.526079574429653e-15
-2.358531087255798e-15
-2.192064896098477e-15
-2.026678407365785e-15
-1.862369027465814e-15
-1.699134162806647e-15
-1.536971219796400e-15
-1.375877604843154e-15
-1.215850724355003e-15
-1.056887984740040e-15
-8.989867924063587e-16
-7.421445537620414e-16
-5.863586752152033e-16
-4.316265631739267e-16
-2.779456240463050e-16
-1.253132642404316e-16
2.627310983561077e-17
1.768160917737076e-16
3.263182751657761e-16
4.747822536037334e-16
6.222106206794552e-16
7.686059699848789e-16
9.139708951119111e-16
1.058307989652438e-15
1.201619847198377e-15
1.343909061341644e-15
1.485178225674116e-15
1.625429933787740e-15
1.764666779274392e-15
1.902891355725989e-15
2.040106256734447e-15
2.176314075891654e-15
2.311517406789526e-15
2.445718843019970e-15
2.578920978174892e-15
2.711126405846199e-15
2.842337719625806e-15
2.972557513105603e-15
3.101788379877505e-15
3.230032913533418e-15
3.357293707665249e-15
3.483573355864915e-15
3.608874451724303e-15
3.733199588835329e-15
3.856551360789900e-15
3.978932361179923e-15
4.100345183597304e-15
4.220792421633958e-15
4.340276668881776e-15
4.458800518932671e-15
4.576366565378551e-15
4.692977401811323e-15
4.808635621822901e-15
4.923343819005176e-15
5.037104586950062e-15
5.149920519249474e-15
5.261794209495296e-15
5.372728251279456e-15
5.482725238193863e-15
5.591787763830407e-15
5.699918421781002e-15
5.807119805637563e-15
5.913394508991973e-15
6.018745125436164e-15
6.123174248562038e-15
6.226684471961491e-15
6.329278389226442e-15
6.430958593948783e-15
6.531727679720430e-15
6.631588240133281e-15
6.730542868779264e-15
6.828594159250272e-15
6.925744705138197e-15
7.021997100034975e-15
7.117353937532489e-15
7.211817811222650e-15
7.305391314697379e-15
7.398077041548574e-15
7.489877585368130e-15
7.580795539747974e-15
7.670833498279998e-15
7.759994054556105e-15
7.848279802168223e-15
7.935693334708246e-15
8.022237245768081e-15
8.107914128939621e-15
8.192726577814793e-15
8.276677185985500e-15
8.359768547043634e-15
8.442003254581126e-15
8.523383902189868e-15
8.603913083461755e-15
8.683593391988714e-15
8.762427421362649e-15
8.840417765175450e-15
8.917567017019050e-15
8.993877770485336e-15
9.069352619166214e-15
9.143994156653600e-15
9.217804976539401e-15
9.290787672415512e-15
9.362944837873856e-15
9.434279066506334e-15
9.504792951904835e-15
9.574489087661289e-15
9.643370067367598e-15
9.711438484615657e-15
9.778696932997387e-15
9.845148006104688e-15
9.910794297529464e-15
9.975638400863621e-15
1.003968290969908e-14
1.010293041762773e-14
1.016538351824148e-14
1.022704480513225e-14
1.028791687189193e-14
1.034800231211243e-14
1.040730371938568e-14
1.046582368730356e-14
1.052356480945797e-14
1.058052967944085e-14
1.063672089084407e-14
1.069214103725956e-14
1.074679271227923e-14
1.080067850949498e-14
1.085380102249870e-14
1.090616284488232e-14
1.095776657023774e-14
1.100861479215686e-14
1.105871010423159e-14
1.110805510005384e-14
1.115665237321551e-14
1.120450451730852e-14
1.125161412592476e-14
1.129798379265614e-14
1.134361611109458e-14
1.138851367483198e-14
1.143267907746024e-14
1.147611491257127e-14
1.151882377375698e-14
1.156080825460927e-14
1.160207094872005e-14
1.164261444968123e-14
1.168244135108472e-14
1.172155424652241e-14
1.175995572958623e-14
1.179764839386807e-14
1.183463483295983e-14
1.187091764045344e-14
1.190649940994079e-14
1.194138273501379e-14
1.197557020926435e-14
1.200906442628437e-14
1.204186797966576e-14
1.207398346300044e-14
1.210541346988029e-14
1.213616059389724e-14
1.216622742864318e-14
1.219561656771003e-14
1.222433060468969e-14
1.225237213317407e-14
1.227974374675507e-14
1.230644803902460e-14
1.233248760357457e-14
1.235786503399688e-14
1.238258292388345e-14
1.240664386682616e-14
1.243005045641695e-14
1.245280528624771e-14
1.247491094991034e-14
1.249637004099676e-14
1.251718515309887e-14
1.253735887980857e-14
1.255689381471778e-14
1.257579255141841e-14
1.259405768350234e-14
1.261169180456151e-14
1.262869750818780e-14
1.264507738797313e-14
1.266083403750940e-14
1.267597005038853e-14
1.269048802020241e-14
1.270439054054296e-14
1.271768020500208e-14
1.273035960717167e-14
1.274243134064365e-14
1.275389799900991e-14
1.276476217586238e-14
1.277502646479295e-14
1.278469345939353e-14
1.279376575325603e-14
1.280224593997235e-14
1.281013661313441e-14
1.281744036633410e-14
1.282415979316333e-14
1.283029748721402e-14
1.283585604207806e-14
1.284083805134736e-14
1.284524610861384e-14
1.284908280746939e-14
1.285235074150593e-14
1.285505250431536e-14
1.285719068948959e-14
1.285876789062051e-14
1.285978670130006e-14
1.286024971512011e-14
1.286015952567259e-14
1.285951872654940e-14
1.285832991134245e-14
1.285659567364365e-14
1.285431860704489e-14
1.285150130513809e-14
1.284814636151515e-14
1.284425636976799e-14
1.283983392348850e-14
1.283488161626860e-14
1.282940204170018e-14
1.282339779337516e-14
1.281687146488545e-14
1.280982564982295e-14
1.280226294177957e-14
1.279418593434720e-14
1.278559722111777e-14
1.277649939568318e-14
1.276689505163533e-14
1.275678678256613e-14
1.274617718206748e-14
1.273506884373130e-14
1.272346436114950e-14
1.271136632791396e-14
1.269877733761662e-14
1.268569998384936e-14
1.267213686020410e-14
1.265809056027274e-14
1.264356367764719e-14
1.262855880591937e-14
1.261307853868116e-14
1.259712546952449e-14
1.258070219204125e-14
1.256381129982335e-14
1.254645538646271e-14
1.252863704555122e-14
1.251035887068079e-14
1.249162345544334e-14
1.247243339343077e-14
1.245279127823497e-14
1.243269970344787e-14
1.241216126266137e-14
1.239117854946736e-14
1.236975415745777e-14
1.234789068022450e-14
1.232559071135945e-14
1.230285684445453e-14
1.227969167310164e-14
1.225609779089270e-14
1.223207779141961e-14
1.220763426827428e-14
1.218276981504861e-14
1.215748702533451e-14
1.213178849272389e-14
1.210567681080865e-14
1.207915457318070e-14
1.205222437343195e-14
1.202488880515430e-14
1.199715046193966e-14
1.196901193737994e-14
1.194047582506704e-14
1.191154471859287e-14
1.188222121154934e-14
1.185250789752836e-14
1.182240737012182e-14
1.179192222292163e-14
1.176105504951972e-14
1.172980844350797e-14
1.169818499847830e-14
1.166618730802262e-14
1.163381796573282e-14
1.160107956520082e-14
1.156797470001852e-14
1.153450596377783e-14
1.150067595007067e-14
1.146648725248892e-14
1.143194246462450e-14
1.139704418006932e-14
1.136179499241529e-14
1.132619749525430e-14
1.129025428217827e-14
1.125396794677911e-14
1.121734108264871e-14
1.118037628337899e-14
1.114307614256185e-14
1.110544325378921e-14
1.106748021065296e-14
1.102918960674501e-14
1.099057403565728e-14
1.095163609098166e-14
1.091237836631006e-14
1.087280345523440e-14
1.083291395134656e-14
1.079271244823847e-14
1.075220153950205e-14
1.071138381872916e-14
1.067026187951174e-14
1.062883831544171e-14
1.058711572011094e-14
1.054509668711135e-14
1.050278381003485e-14
1.046017968247335e-14
1.041728689801875e-14
1.037410805026297e-14
1.033064573279790e-14
1.028690253921545e-14
1.024288106310753e-14
1.019858389806605e-14
1.015401363768291e-14
1.010917287555003e-14
1.006406420525930e-14
1.001869022040264e-14
9.973053514571932e-15
9.927156681359115e-15
9.881002314356072e-15
9.834593007154728e-15
9.787931353346978e-15
9.741019946524721e-15
9.693861380279878e-15
9.646458248204357e-15
9.598813143890060e-15
9.550928660928891e-15
9.502807392912755e-15
9.454451933433574e-15
9.405864876083231e-15
9.357048814453650e-15
9.308006342136727e-15
9.258740052724372e-15
9.209252539808504e-15
9.159546396981009e-15
9.109624217833807e-15
9.059488595958806e-15
9.009142124947897e-15
8.958587398393001e-15
8.907827009886029e-15
8.856863553018882e-15
8.805699621383454e-15
8.754337808571665e-15
8.702780708175426e-15
8.651030913786629e-15
8.599091018997188e-15
8.546963617399015e-15
8.494651302584006e-15
8.442156668144077e-15
8.389482307671131e-15
8.336630814757076e-15
8.283604782993811e-15
8.230406805973264e-15
8.177039477287309e-15
8.123505390527872e-15
8.069807139286873e-15
8.015947317156190e-15
7.961928517727749e-15
7.907753334593457e-15
7.853424361345200e-15
7.798944191574904e-15
7.744315418874478e-15
7.689540636835815e-15
7.634622439050829e-15
7.579563419111425e-15
7.524366170609512e-15
7.469033287136996e-15
7.413567362285778e-15
7.357970989647779e-15
7.302246762814888e-15
7.246397275379016e-15
7.190425120932089e-15
7.134332893065985e-15
7.078123185372627e-15
7.021798591443927e-15
6.965361704871780e-15
6.908815119248095e-15
6.852161428164767e-15
6.795403225213728e-15
6.738543103986861e-15
6.681583658076094e-15
6.624527481073314e-15
6.567377166570448e-15
6.510135308159385e-15
6.452804499432039e-15
6.395387333980311e-15
6.337886405396130e-15
6.280304307271373e-15
6.222643633197959e-15
6.164906976767796e-15
6.107096931572780e-15
6.049216091204839e-15
5.991267049255856e-15
5.933252399317759e-15
5.875174734982436e-15
5.817036649841806e-15
5.758840737487766e-15
5.700589591512236e-15
5.642285805507117e-15
5.583931973064326e-15
5.525530687775741e-15
5.467084543233282e-15
5.408596133028861e-15
5.350068050754396e-15
5.291502890001763e-15
5.232903244362895e-15
5.174271707429681e-15
5.115610872794047e-15
5.056923334047893e-15
4.998211684783103e-15
4.939478518591620e-15
4.880726429065339e-15
4.821958009796142e-15
4.763175854375951e-15
4.704382556396695e-15
4.645580709450251e-15
4.586772907128525e-15
4.527961743023447e-15
4.469149810726923e-15
4.410339703830829e-15
4.351534015927088e-15
4.292735340607629e-15
4.233946271464327e-15
4.175169402089099e-15
4.116407326073872e-15
4.057662637010516e-15
3.998937928490953e-15
3.940235794107111e-15
3.881558827450860e-15
3.822909622114130e-15
3.764290771688833e-15
3.705704869766854e-15
3.647154509940108e-15
3.588642285800516e-15
3.530170790939961e-15
3.471742618950375e-15
3.413360363423639e-15
3.355026617951678e-15
3.296743976126381e-15
3.238515031539694e-15
3.180342377783469e-15
3.122228608449644e-15
3.064176317130126e-15
3.006188097416830e-15
2.948266542901630e-15
2.890414247176456e-15
2.832633803833232e-15
2.774927806463823e-15
2.717298848660171e-15
2.659749524014146e-15
2.602282426117691e-15
2.544900148562694e-15
2.487605284941070e-15
2.430400428844710e-15
2.373288173865546e-15
2.316271113595475e-15
2.259351841626379e-15
2.202532951550190e-15
2.145817036958832e-15
2.089206691444195e-15
2.032704508598150e-15
1.976313082012647e-15
1.920035005279576e-15
1.863872871990852e-15
1.807829275738364e-15
1.751906810114046e-15
1.696108068709777e-15
1.640435645117491e-15
1.584892132929067e-15
1.529480125736440e-15
1.474202217131488e-15
1.419061000706155e-15
1.364059070052302e-15
1.309199018761854e-15
1.254483440426754e-15
1.199914928638844e-15
1.145496076990060e-15
1.091229479072325e-15
1.037117728477537e-15
9.831634187975941e-16
9.293691436244022e-16
8.757374965498687e-16
8.222710711659089e-16
7.689724610644391e-16
7.158442598373287e-16
6.628890610765123e-16
6.101094583739058e-16
5.575080453213880e-16
5.050874155108747e-16
4.528501625342819e-16
4.007988799835261e-16
3.489361614504758e-16
2.972646005270756e-16
2.457867908052229e-16
1.945053258767954e-16
1.434227993337382e-16
9.254180476794846e-17
4.186493577131346e-17
-8.605214064235855e-18
-5.886605114680155e-17
-1.089149818844855e-16
-1.587494126853741e-16
-2.083667499575538e-16
-2.577644001091316e-16
-3.069397695481942e-16
-3.558902646828278e-16
-4.046132919211329e-16
-4.531062576712092e-16
-5.013665683411370e-16
-5.493916303390228e-16
-5.971788500729532e-16
-6.447256339510151e-16
-6.920293883813149e-16
-7.390875197719394e-16
-7.858974345309755e-16
-8.324565390665295e-16
-8.787622397866881e-16
-9.248119430995382e-16
-9.706030554131802e-16
-1.016132983135713e-15
-1.061399132675224e-15
-1.106398910439800e-15
-1.151129722837547e-15
-1.195588976276552e-15
-1.239774077164902e-15
-1.283682431910704e-15
-1.327311446922043e-15
-1.370658528607008e-15
-1.413721083373704e-15
-1.456496517630212e-15
-1.498982237784637e-15
-1.541175650245061e-15
-1.583074161419589e-15
-1.624675177716303e-15
-1.665976105543308e-15
-1.706974351308690e-15
-1.747667321420539e-15
-1.788052422286958e-15
-1.828127060316035e-15
-1.867888641915858e-15
-1.907334573494532e-15
-1.946462261460144e-15
-1.985269112220781e-15
-2.023752532184544e-15
-2.061909927759531e-15
-2.099738705353828e-15
-2.137236271375526e-15
-2.174400032232727e-15
-2.211227394333520e-15
-2.247715764085992e-15
-2.283862547898248e-15
-2.319665152178375e-15
-2.355120983334463e-15
-2.390227447774613e-15
-2.424981951906911e-15
-2.459381902139453e-15
-2.493424704880339e-15
-2.527107766537656e-15
-2.560428493519493e-15
-2.593384292233953e-15
-2.625972569089125e-15
-2.658190730493098e-15
-2.690036182853973e-15
-2.721506332579840e-15
-2.752598586078788e-15
-2.783310349758918e-15
-2.813639030028316e-15
-2.843582033295078e-15
-2.873136765967304e-15
-2.902300634453081e-15
-2.931071045160503e-15
-2.959445404497660e-15
-2.987421118872652e-15
-3.014995594693569e-15
-3.042166238368501e-15
-3.068930456305548e-15
-3.095285654912800e-15
-3.121229240598348e-15
-3.146758619770287e-15
-3.171871198836714e-15
-3.196564384205718e-15
-3.220835582285396e-15
-3.244682199483839e-15
-3.268101642209137e-15
-3.291091316869390e-15
-3.313648629872689e-15
-3.335770987627123e-15
-3.357455796540791e-15
-3.378700463021784e-15
-3.399502393478194e-15
-3.419858994318115e-15
-3.439767671949644e-15
-3.459225832780870e-15
-3.478230883219890e-15
-3.496780229674795e-15
-3.514871278553678e-15
-3.532501436264631e-15
-3.549668109215751e-15
-3.566368703815130e-15
-3.582600626470858e-15
-3.598361283591035e-15
-3.613648081583747e-15
-3.628458426857094e-15
-3.642789725819161e-15
-3.656639384878052e-15
-3.670004810441854e-15
-3.682883408918661e-15
-3.695272586716568e-15
-3.707169750243666e-15
-3.718572305908049e-15
-3.729477660117808e-15
-3.739883219281042e-15
-3.749786389805841e-15
-3.759184578100298e-15
-3.768075190572507e-15
-3.776455633630563e-15
-3.784323313682554e-15
-3.791675637136580e-15
-3.798510010400731e-15
-3.804823839883101e-15
-3.810614531991783e-15
-3.815879493134870e-15
-3.820616129720455e-15
-3.824821848156632e-15
-3.828494054851495e-15
-3.831630156213137e-15
-3.834227558649651e-15
-3.836283668569130e-15
-3.837795892379668e-15
-3.838761636489358e-15
-3.839178307306294e-15
-3.839043311238568e-15
-3.838354054694274e-15
-3.837107944081506e-15
-3.835302385808357e-15
-3.832934786282920e-15
-3.830002551913288e-15
-3.826503089107555e-15
-3.822433804273815e-15
-3.817792103820159e-15
-3.812575394154682e-15
-3.806781081685479e-15
-3.800406572820640e-15
-3.793449273968261e-15
-3.785906591536432e-15
-3.777775931933249e-15
-3.769054701566805e-15
-3.759740306845196e-15
-3.749830154176509e-15
-3.739321649968843e-15
-3.728212200630289e-15
-3.716499212568939e-15
-3.704180092192889e-15
-3.691252245910234e-15
-3.677713080129061e-15
-3.663560001257466e-15
-3.648790415703545e-15
-3.633401729875390e-15
-3.617391350181092e-15
-3.600756683028747e-15
-3.583495134826452e-15
-3.565604111982291e-15
-3.547081020904367e-15
-3.527923268000763e-15
-3.508128259679579e-15
-3.487693402348908e-15
-3.466616102416848e-15
-3.444893766291481e-15
-3.422523800380907e-15
-3.399503611093217e-15
-3.375830604836507e-15
-3.351502188018870e-15
-3.326515767048405e-15
-3.300868748333191e-15
-3.274558538281334e-15
-3.247582543300919e-15
-3.219938169800044e-15
-3.191622824186800e-15
-3.162633912869290e-15
-3.132968842255591e-15
-3.102625018753804e-15
-3.071599848772023e-15
-3.039890738718342e-15
-3.007495095000853e-15
-2.974410324027653e-15
-2.940633832206833e-15
-2.906163025946486e-15
-2.870995311654701e-15
-2.835128095739573e-15
-2.798558784609197e-15
-2.761284784671669e-15
-2.723303502335089e-15
-2.684612344007531e-15
-2.645208716097099e-15
-2.605090025011887e-15
-2.564253677159986e-15
-2.522697078949496e-15
-2.480417636788508e-15
-2.437412757085113e-15
-2.393679846247394e-15
-2.349216310683455e-15
-2.304019556801391e-15
-2.258086991009293e-15
-2.211416019715265e-15
-2.164004049327377e-15
-2.115848486253736e-15
-2.066946736902434e-15
-2.017296207681563e-15
-1.966894304999224e-15
-1.915738435263508e-15
-1.863826004882501e-15
-1.811154420264294e-15
-1.757721087816987e-15
-1.703523413948674e-15
-1.648558805067444e-15
-1.592824667581393e-15
-1.536318407898633e-15
-1.479037432427222e-15
-1.420979147575270e-15
-1.362140959750870e-15
-1.302520275362126e-15
-1.242114500817113e-15
-1.180921042523937e-15
-1.118937306890692e-15
-1.056160700325457e-15
-9.925886292363320e-16
-9.282185000314128e-16
-8.630477191187951e-16
-7.970736929065896e-16
-7.302938278028501e-16
-6.627055302156897e-16
-5.943062065532018e-16
-5.250932632234910e-16
-4.550641066346280e-16
-3.842161431947290e-16
-3.125467793118759e-16
-2.400534213941503e-16
-1.667334758496595e-16
-9.258434908649455e-17
-1.760344751274868e-17
5.820799262964937e-17
1.348154013598034e-16
2.121670453674709e-16
2.902110494966466e-16
3.688955385913467e-16
4.481686374955763e-16
5.279784710533733e-16
6.082731641087205e-16
6.890008415056789e-16
7.701096280882421e-16
8.515476487004264e-16
9.332630281862478e-16
1.015203891389722e-15
1.097318363154843e-15
1.179554568325672e-15
1.261860631746203e-15
1.344184678260451e-15
1.426474832712422e-15
1.508679219946154e-15
1.590745964805628e-15
1.672623192134908e-15
1.754259026777986e-15
1.835601593578878e-15
1.916599017381600e-15
1.997199423030169e-15
2.077350935368601e-15
2.157001679240888e-15
2.236099779491093e-15
2.314593360963209e-15
2.392430548501241e-15
2.469559466949226e-15
2.545928241151172e-15
2.621484995951070e-15
2.696177856192982e-15
2.769954946720902e-15
2.842764392378844e-15
2.914554318010827e-15
2.985272848460865e-15
3.054868108572956e-15
3.123288223191154e-15
3.190481317159457e-15
3.256395515321870e-15
3.320978942522430e-15
3.384179723605141e-15
3.445945983414004e-15
3.506225846793069e-15
3.564967438586335e-15
3.622118883637817e-15
3.677628306791533e-15
3.731443832891497e-15
3.783513586781720e-15
3.833785693306224e-15
3.882208277309026e-15
3.928729463634154e-15
3.973297377125600e-15
4.015860142627403e-15
4.056365884983556e-15
4.094762729038088e-15
4.130998799635014e-15
4.165022221618351e-15
4.196781119832123e-15
4.226223619120329e-15
4.253297844327001e-15
4.277951920296134e-15
4.300133971871771e-15
4.319792123897910e-15
4.336874501218575e-15
4.351329228677775e-15
4.363104431119534e-15
4.372148233387860e-15
4.378408760326776e-15
4.381834136780296e-15
4.382372487592435e-15
4.379971937607210e-15
4.374580611668637e-15
4.366146634620730e-15
4.354618131307513e-15
4.339943226572991e-15
4.322070045261188e-15
4.300946712216111e-15
4.276521352281790e-15
4.248742090302234e-15
4.217557051121458e-15