/*--------------------------------*- C++ -*----------------------------------*\
| =========                 |                                                 |
| \\      /  F ield         | OpenFOAM: The Open Source CFD Toolbox           |
|  \\    /   O peration     | Version:  5.x                                   |
|   \\  /    A nd           | Web:      www.OpenFOAM.org                      |
|    \\/     M anipulation  |                                                 |
\*---------------------------------------------------------------------------*/
FoamFile
{
    version     2.0;
    format      ascii;
    class       volScalarField;
    location    "0";
    object       T;
}
// * * * * * * * * * * * * * * * * * * * * * * * * * * * * * * * * * * * * * //

dimensions      [0 0 0 1 0 0 0];

internalField   nonuniform List<scalar>
4830
(
300.000002194869921
300.000002186244274
300.000002177639374
300.000002169055051
300.000002160491420
300.000002151948422
300.000002143425945
300.000002134924102
300.000002126442780
300.000002117981921
300.000002109541640
300.000002101121822
300.000002092722411
300.000002084343464
300.000002075984867
300.000002067646733
300.000002059328892
300.000002051031402
300.000002042754204
300.000002034497300
300.000002026260688
300.000002018044313
300.000002009848117
300.000002001672158
300.000001993516321
300.000001985380663
300.000001977265129
300.000001969169659
300.000001961094313
300.000001953038975
300.000001945003703
300.000001936988440
300.000001928993129
300.000001921017770
300.000001913062363
300.000001905126908
300.000001897211291
300.000001889315513
300.000001881439630
300.000001873583585
300.000001865747265
300.000001857930783
300.000001850134026
300.000001842356937
300.000001834599630
300.000001826861990
300.000001819143961
300.000001811445600
300.000001803766793
300.000001796107654
300.000001788468012
300.000001780847924
300.000001773247391
300.000001765666298
300.000001758104702
300.000001750562546
300.000001743039775
300.000001735536443
300.000001728052439
300.000001720587818
300.000001713142524
300.000001705716556
300.000001698309859
300.000001690922375
300.000001683554160
300.000001676205159
300.000001668875370
300.000001661564681
300.000001654273149
300.000001647000772
300.000001639747438
300.000001632513204
300.000001625298012
300.000001618101862
300.000001610924699
300.000001603766520
300.000001596627271
300.000001589506951
300.000001582405559
300.000001575323040
300.000001568259393
300.000001561214560
300.000001554188543
300.000001547181341
300.000001540192898
300.000001533223156
300.000001526272172
300.000001519339889
300.000001512426252
300.000001505531259
300.000001498654910
300.000001491797150
300.000001484957977
300.000001478137392
300.000001471335281
300.000001464551701
300.000001457786652
300.000001451040021
300.000001444311806
300.000001437602066
300.000001430910686
300.000001424237666
300.000001417583007
300.000001410946652
300.000001404328600
300.000001397728852
300.000001391147293
300.000001384584039
300.000001378038917
300.000001371512042
300.000001365003243
300.000001358512634
300.000001352040158
300.000001345585702
300.000001339149378
300.000001332731074
300.000001326330789
300.000001319948467
300.000001313584164
300.000001307237767
300.000001300909275
300.000001294598746
300.000001288306066
300.000001282031235
300.000001275774252
300.000001269535062
300.000001263313663
300.000001257110000
300.000001250924072
300.000001244755879
300.000001238605364
300.000001232472528
300.000001226357369
300.000001220259776
300.000001214179804
300.000001208117396
300.000001202072553
300.000001196045218
300.000001190035391
300.000001184043015
300.000001178068146
300.000001172110672
300.000001166170648
300.000001160247962
300.000001154342669
300.000001148454714
300.000001142584040
300.000001136730702
300.000001130894645
300.000001125075812
300.000001119274145
300.000001113489759
300.000001107722483
300.000001101972430
300.000001096239430
300.000001090523597
300.000001084824817
300.000001079143090
300.000001073478415
300.000001067830738
300.000001062200056
300.000001056586370
300.000001050989567
300.000001045409761
300.000001039846779
300.000001034300681
300.000001028771464
300.000001023259017
300.000001017763395
300.000001012284599
300.000001006822515
300.000001001377143
300.000000995948483
300.000000990536535
300.000000985141241
300.000000979762547
300.000000974400507
300.000000969055066
300.000000963726166
300.000000958413807
300.000000953117990
300.000000947838657
300.000000942575809
300.000000937329389
300.000000932099454
300.000000926885889
300.000000921688695
300.000000916507815
300.000000911343307
300.000000906195112
300.000000901063231
300.000000895947608
300.000000890848185
300.000000885765019
300.000000880697996
300.000000875647174
300.000000870612496
300.000000865593961
300.000000860591513
300.000000855605094
300.000000850634763
300.000000845680518
300.000000840742189
300.000000835819890
300.000000830913564
300.000000826023154
300.000000821148603
300.000000816290026
300.000000811447251
300.000000806620392
300.000000801809279
300.000000797013968
300.000000792234459
300.000000787470697
300.000000782722680
300.000000777990294
300.000000773273655
300.000000768572647
300.000000763887272
300.000000759217528
300.000000754563303
300.000000749924709
300.000000745301634
300.000000740694020
300.000000736101981
300.000000731525347
300.000000726964174
300.000000722418463
300.000000717888099
300.000000713373140
300.000000708873529
300.000000704389208
300.000000699920236
300.000000695466554
300.000000691028049
300.000000686604835
300.000000682196855
300.000000677804053
300.000000673426371
300.000000669063866
300.000000664716481
300.000000660384160
300.000000656066959
300.000000651764765
300.000000647477577
300.000000643205453
300.000000638948279
300.000000634705998
300.000000630478723
300.000000626266342
300.000000622068796
300.000000617886144
300.000000613718328
300.000000609565348
300.000000605427147
300.000000601303668
300.000000597194969
300.000000593100992
300.000000589021738
300.000000584957093
300.000000580907169
300.000000576871798
300.000000572851093
300.000000568844939
300.000000564853337
300.000000560876231
300.000000556913676
300.000000552965616
300.000000549031995
300.000000545112812
300.000000541208067
300.000000537317703
300.000000533441721
300.000000529580063
300.000000525732730
300.000000521899722
300.000000518080924
300.000000514276451
300.000000510486188
300.000000506710080
300.000000502948183
300.000000499200496
300.000000495466907
300.000000491747414
300.000000488042019
300.000000484350664
300.000000480673350
300.000000477010076
300.000000473360842
300.000000469725535
300.000000466104154
300.000000462496700
300.000000458903173
300.000000455323516
300.000000451757728
300.000000448205753
300.000000444667592
300.000000441143186
300.000000437632593
300.000000434135700
300.000000430652562
300.000000427183068
300.000000423727272
300.000000420285062
300.000000416856551
300.000000413441569
300.000000410040229
300.000000406652362
300.000000403278079
300.000000399917269
300.000000396569988
300.000000393236121
300.000000389915670
300.000000386608633
300.000000383315012
300.000000380034749
300.000000376767844
300.000000373514183
300.000000370273881
300.000000367046823
300.000000363833010
300.000000360632441
300.000000357445060
300.000000354270867
300.000000351109804
300.000000347961873
300.000000344827072
300.000000341705288
300.000000338596635
300.000000335500999
300.000000332418381
300.000000329348723
300.000000326292025
300.000000323248287
300.000000320217509
300.000000317199579
300.000000314194494
300.000000311202314
300.000000308222923
300.000000305256378
300.000000302302567
300.000000299361545
300.000000296433200
300.000000293517587
300.000000290614707
300.000000287724447
300.000000284846806
300.000000281981784
300.000000279129381
300.000000276289541
300.000000273462263
300.000000270647433
300.000000267845166
300.000000265055348
300.000000262278036
300.000000259513058
300.000000256760529
300.000000254020392
300.000000251292590
300.000000248577180
300.000000245873991
300.000000243183138
300.000000240504562
300.000000237838208
300.000000235184075
300.000000232542106
300.000000229912359
300.000000227294720
300.000000224689188
300.000000222095821
300.000000219514504
300.000000216945182
300.000000214387967
300.000000211842746
300.000000209309462
300.000000206788172
300.000000204278820
300.000000201781347
300.000000199295812
300.000000196822100
300.000000194360268
300.000000191910260
300.000000189472019
300.000000187045543
300.000000184630835
300.000000182227836
300.000000179836547
300.000000177456968
300.000000175088985
300.000000172732655
300.000000170387978
300.000000168054839
300.000000165733297
300.000000163423238
300.000000161124774
300.000000158837736
300.000000156562180
300.000000154298107
300.000000152045402
300.000000149804123
300.000000147574212
300.000000145355671
300.000000143148441
300.000000140952466
300.000000138767859
300.000000136594451
300.000000134432298
300.000000132281400
300.000000130141643
300.000000128013028
300.000000125895610
300.000000123789277
300.000000121694029
300.000000119609865
300.000000117536729
300.000000115474620
300.000000113423539
300.000000111383429
300.000000109354289
300.000000107336064
300.000000105328695
300.000000103332297
300.000000101346700
300.000000099371960
300.000000097408019
300.000000095454880
300.000000093512483
300.000000091580887
300.000000089659977
300.000000087749754
300.000000085850218
300.000000083961311
300.000000082083034
300.000000080215386
300.000000078358312
300.000000076511753
300.000000074675768
300.000000072850298
300.000000071035288
300.000000069230794
300.000000067436645
300.000000065653012
300.000000063879725
300.000000062116783
300.000000060364187
300.000000058621936
300.000000056890030
300.000000055168357
300.000000053456915
300.000000051755705
300.000000050064727
300.000000048383924
300.000000046713239
300.000000045052730
300.000000043402338
300.000000041762007
300.000000040131795
300.000000038511587
300.000000036901383
300.000000035301184
300.000000033710933
300.000000032130686
300.000000030560329
300.000000028999864
300.000000027449289
300.000000025908605
300.000000024377698
300.000000022856625
300.000000021345329
300.000000019843810
300.000000018352011
300.000000016869933
300.000000015397518
300.000000013934823
300.000000012481735
300.000000011038253
300.000000009604435
300.000000008180109
300.000000006765390
300.000000005360164
300.000000003964487
300.000000002578247
300.000000001201443
299.999999999834131
299.999999998476198
299.999999997127645
299.999999995788471
299.999999994458676
299.999999993138147
299.999999991826883
299.999999990524941
299.999999989232265
299.999999987948740
299.999999986674482
299.999999985409374
299.999999984153362
299.999999982906559
299.999999981668850
299.999999980440180
299.999999979220604
299.999999978010067
299.999999976808510
299.999999975615992
299.999999974432399
299.999999973257786
299.999999972092041
299.999999970935221
299.999999969787268
299.999999968648183
299.999999967517908
299.999999966396445
299.999999965283735
299.999999964179779
299.999999963084576
299.999999961998071
299.999999960920263
299.999999959851095
299.999999958790625
299.999999957738680
299.999999956695376
299.999999955660655
299.999999954634461
299.999999953616793
299.999999952607595
299.999999951606867
299.999999950614665
299.999999949630819
299.999999948655386
299.999999947688366
299.999999946729702
299.999999945779336
299.999999944837271
299.999999943903561
299.999999942978036
299.999999942060811
299.999999941151771
299.999999940250973
299.999999939358304
299.999999938473763
299.999999937597352
299.999999936729068
299.999999935868857
299.999999935016717
299.999999934172592
299.999999933336426
299.999999932508331
299.999999931688137
299.999999930875902
299.999999930071567
299.999999929275134
299.999999928486545
299.999999927705801
299.999999926932901
299.999999926167789
299.999999925410407
299.999999924660813
299.999999923918949
299.999999923184816
299.999999922458301
299.999999921739459
299.999999921028291
299.999999920324683
299.999999919628692
299.999999918940205
299.999999918259334
299.999999917585967
299.999999916920046
299.999999916261629
299.999999915610658
299.999999914967077
299.999999914330942
299.999999913702140
299.999999913080671
299.999999912466592
299.999999911859788
299.999999911260261
299.999999910668009
299.999999910082977
299.999999909505163
299.999999908934569
299.999999908371080
299.999999907814754
299.999999907265533
299.999999906723474
299.999999906188407
299.999999905660445
299.999999905139475
299.999999904625497
299.999999904118511
299.999999903618459
299.999999903125342
299.999999902639161
299.999999902159857
299.999999901687431
299.999999901221827
299.999999900762987
299.999999900310968
299.999999899865770
299.999999899427280
299.999999898995497
299.999999898570422
299.999999898151998
299.999999897740224
299.999999897335101
299.999999896936572
299.999999896544637
299.999999896159238
299.999999895780377
299.999999895408052
299.999999895042151
299.999999894682787
299.999999894329790
299.999999893983272
299.999999893643121
299.999999893309337
299.999999892981918
299.999999892660810
299.999999892345954
299.999999892037465
299.999999891735172
299.999999891439131
299.999999891149230
299.999999890865581
299.999999890588072
299.999999890316701
299.999999890051470
299.999999889792264
299.999999889539140
299.999999889292098
299.999999889051082
299.999999888815978
299.999999888586899
299.999999888363789
299.999999888146590
299.999999887935303
299.999999887729871
299.999999887530294
299.999999887336571
299.999999887148590
299.999999886966464
299.999999886790079
299.999999886619435
299.999999886454475
299.999999886295257
299.999999886141666
299.999999885993759
299.999999885851423
299.999999885714715
299.999999885583577
299.999999885458010
299.999999885337957
299.999999885223417
299.999999885114335
299.999999885010709
299.999999884912540
299.999999884819772
299.999999884732347
299.999999884650322
299.999999884573640
299.999999884502301
299.999999884436193
299.999999884375427
299.999999884319834
299.999999884269528
299.999999884224394
299.999999884184433
299.999999884149645
299.999999884119973
299.999999884095416
299.999999884075919
299.999999884061481
299.999999884052102
299.999999884047725
299.999999884048350
299.999999884053921
299.999999884064437
299.999999884079898
299.999999884100248
299.999999884125430
299.999999884155500
299.999999884190402
299.999999884230078
299.999999884274530
299.999999884323756
299.999999884377701
299.999999884436363
299.999999884499744
299.999999884567728
299.999999884640374
299.999999884717681
299.999999884799536
299.999999884885938
299.999999884976887
299.999999885072384
299.999999885172372
299.999999885276850
299.999999885385762
299.999999885499108
299.999999885616830
299.999999885738987
299.999999885865464
299.999999885996317
299.999999886131434
299.999999886270871
299.999999886414514
299.999999886562478
299.999999886714591
299.999999886870967
299.999999887031436
299.999999887196111
299.999999887364879
299.999999887537797
299.999999887714750
299.999999887895740
299.999999888080765
299.999999888269826
299.999999888462867
299.999999888659886
299.999999888860771
299.999999889065634
299.999999889274363
299.999999889486958
299.999999889703417
299.999999889923686
299.999999890147762
299.999999890375591
299.999999890607171
299.999999890842446
299.999999891081472
299.999999891324137
299.999999891570496
299.999999891820494
299.999999892074072
299.999999892331289
299.999999892591973
299.999999892856295
299.999999893124084
299.999999893395341
299.999999893670122
299.999999893948313
299.999999894229916
299.999999894514985
299.999999894803352
299.999999895095129
299.999999895390204
299.999999895688575
299.999999895990243
299.999999896295151
299.999999896603299
299.999999896914687
299.999999897229259
299.999999897546957
299.999999897867838
299.999999898191845
299.999999898518922
299.999999898849069
299.999999899182285
299.999999899518514
299.999999899857698
299.999999900199896
299.999999900545106
299.999999900893158
299.999999901244166
299.999999901598073
299.999999901954766
299.999999902314357
299.999999902676734
299.999999903041953
299.999999903409901
299.999999903780576
299.999999904154038
299.999999904530114
299.999999904908918
299.999999905290338
299.999999905674429
299.999999906061078
299.999999906450341
299.999999906842163
299.999999907236486
299.999999907633310
299.999999908032692
299.999999908434461
299.999999908838731
299.999999909245389
299.999999909654434
299.999999910065810
299.999999910479573
299.999999910895667
299.999999911314092
299.999999911734733
299.999999912157648
299.999999912582780
299.999999913010129
299.999999913439694
299.999999913871363
299.999999914305192
299.999999914741181
299.999999915179160
299.999999915619298
299.999999916061427
299.999999916505601
299.999999916951765
299.999999917399862
299.999999917849948
299.999999918301967
299.999999918755861
299.999999919211632
299.999999919669278
299.999999920128744
299.999999920590028
299.999999921053075
299.999999921517883
299.999999921984454
299.999999922452730
299.999999922922711
299.999999923394341
299.999999923867620
299.999999924342490
299.999999924819008
299.999999925297061
299.999999925776706
299.999999926257885
299.999999926740543
299.999999927224678
299.999999927710235
299.999999928197269
299.999999928685725
299.999999929175544
299.999999929666728
299.999999930159277
299.999999930653132
299.999999931148295
299.999999931644709
299.999999932142373
299.999999932641231
299.999999933141339
299.999999933642584
299.999999934145023
299.999999934648542
299.999999935153198
299.999999935658934
299.999999936165750
299.999999936673589
299.999999937182395
299.999999937692223
299.999999938203075
299.999999938714780
299.999999939227450
299.999999939741031
299.999999940255464
299.999999940770749
299.999999941286831
299.999999941803765
299.999999942321438
299.999999942839906
299.999999943359057
299.999999943878947
299.999999944399519
299.999999944920773
299.999999945442653
299.999999945965158
299.999999946488231
299.999999947011872
299.999999947536082
299.999999948060804
299.999999948585980
299.999999949111725
299.999999949637868
299.999999950164408
299.999999950691404
299.999999951218740
299.999999951746474
299.999999952274550
299.999999952802909
299.999999953331553
299.999999953860481
299.999999954389637
299.999999954919019
299.999999955448573
299.999999955978296
299.999999956508191
299.999999957038199
299.999999957568320
299.999999958098499
299.999999958628791
299.999999959159027
299.999999959689319
299.999999960219611
299.999999960749847
299.999999961279968
299.999999961810090
299.999999962340041
299.999999962869879
299.999999963399546
299.999999963929042
299.999999964458368
299.999999964987410
299.999999965516281
299.999999966044811
299.999999966573057
299.999999967101019
299.999999967628582
299.999999968155805
299.999999968682630
299.999999969209057
299.999999969735029
299.999999970260546
299.999999970785609
299.999999971310103
299.999999971834143
299.999999972357557
299.999999972880460
299.999999973402737
299.999999973924332
299.999999974445359
299.999999974965647
299.999999975485309
299.999999976004233
299.999999976522417
299.999999977039806
299.999999977556399
299.999999978072253
299.999999978587198
299.999999979101290
299.999999979614529
299.999999980126859
299.999999980638279
299.999999981148733
299.999999981658220
299.999999982166685
299.999999982674126
299.999999983180544
299.999999983685882
299.999999984190140
299.999999984693261
299.999999985195245
299.999999985696093
299.999999986195746
299.999999986694206
299.999999987191416
299.999999987687374
299.999999988182026
299.999999988675370
299.999999989167407
299.999999989658136
299.999999990147444
299.999999990635388
299.999999991121911
299.999999991606956
299.999999992090522
299.999999992572668
299.999999993053223
299.999999993532299
299.999999994009784
299.999999994485734
299.999999994960035
299.999999995432688
299.999999995903750
299.999999996373106
299.999999996840756
299.999999997306645
299.999999997770828
299.999999998233250
299.999999998693852
299.999999999152692
299.999999999609599
300.000000000064745
300.000000000517900
300.000000000969237
300.000000001418584
300.000000001865999
300.000000002311424
300.000000002754859
300.000000003196249
300.000000003635591
300.000000004072831
300.000000004508024
300.000000004941057
300.000000005371987
300.000000005800700
300.000000006227253
300.000000006651590
300.000000007073652
300.000000007493497
300.000000007911069
300.000000008326310
300.000000008739221
300.000000009149744
300.000000009557937
300.000000009963685
300.000000010367046
300.000000010767963
300.000000011166378
300.000000011562292
300.000000011955706
300.000000012346561
300.000000012734915
300.000000013120598
300.000000013503723
300.000000013884176
300.000000014262014
300.000000014637124
300.000000015009562
300.000000015379214
300.000000015746195
300.000000016110334
300.000000016471688
300.000000016830256
300.000000017185926
300.000000017538753
300.000000017888681
300.000000018235710
300.000000018579783
300.000000018920900
300.000000019259005
300.000000019594154
300.000000019926233
300.000000020255243
300.000000020581183
300.000000020904054
300.000000021223741
300.000000021540302
300.000000021853737
300.000000022163931
300.000000022470886
300.000000022774600
300.000000023075074
300.000000023372252
300.000000023666132
300.000000023956659
300.000000024243832
300.000000024527594
300.000000024807946
300.000000025084887
300.000000025358361
300.000000025628424
300.000000025894906
300.000000026157863
300.000000026417297
300.000000026673206
300.000000026925477
300.000000027174110
300.000000027419105
300.000000027660462
300.000000027898125
300.000000028132035
300.000000028362251
300.000000028588715
300.000000028811371
300.000000029030275
300.000000029245314
300.000000029456487
300.000000029663795
300.000000029867181
300.000000030066701
300.000000030262242
300.000000030453805
300.000000030641388
300.000000030824935
300.000000031004504
300.000000031179923
300.000000031351306
300.000000031518596
300.000000031681736
300.000000031840727
300.000000031995512
300.000000032146090
300.000000032292462
300.000000032434627
300.000000032572473
300.000000032705998
300.000000032835260
300.000000032960145
300.000000033080653
300.000000033196784
300.000000033308538
300.000000033415802
300.000000033518631
300.000000033616971
300.000000033710819
300.000000033800120
300.000000033884874
300.000000033965023
300.000000034040625
300.000000034111565
300.000000034177845
300.000000034239520
300.000000034296420
300.000000034348659
300.000000034396123
300.000000034438870
300.000000034476784
300.000000034509924
300.000000034538175
300.000000034561594
300.000000034580182
300.000000034593768
300.000000034602522
300.000000034606273
300.000000034605080
300.000000034598827
300.000000034587629
300.000000034571315
300.000000034549998
300.000000034523566
300.000000034492018
300.000000034455297
300.000000034413461
300.000000034366451
300.000000034314155
300.000000034256686
300.000000034193988
300.000000034125947
300.000000034052619
300.000000033974004
300.000000033889989
300.000000033800632
300.000000033705874
300.000000033605716
300.000000033500100
300.000000033389028
300.000000033272443
300.000000033150343
300.000000033022729
300.000000032889545
300.000000032750791
300.000000032606465
300.000000032456455
300.000000032300761
300.000000032139440
300.000000031972434
300.000000031799686
300.000000031621198
300.000000031436912
300.000000031246884
300.000000031051002
300.000000030849264
300.000000030641672
300.000000030428225
300.000000030208867
300.000000029983539
300.000000029752243
300.000000029515036
300.000000029271746
300.000000029022488
300.000000028767147
300.000000028505781
300.000000028238276
300.000000027964631
300.000000027684848
300.000000027398926
300.000000027106807
300.000000026808493
300.000000026503869
300.000000026193050
300.000000025875920
300.000000025552538
300.000000025222732
300.000000024886617
300.000000024544136
300.000000024195231
300.000000023839902
300.000000023478151
300.000000023109919
300.000000022735207
300.000000022353959
300.000000021966173
300.000000021571793
300.000000021170820
300.000000020763309
300.000000020349091
300.000000019928223
300.000000019500703
300.000000019066476
300.000000018625485
300.000000018177786
300.000000017723266
300.000000017261982
300.000000016793877
300.000000016318893
300.000000015837031
300.000000015348348
300.000000014852674
300.000000014350121
300.000000013840577
300.000000013324041
300.000000012800513
300.000000012269936
300.000000011732311
300.000000011187581
300.000000010635745
300.000000010076860
300.000000009510757
300.000000008937491
300.000000008357006
300.000000007769358
300.000000007174435
300.000000006572236
300.000000005962761
300.000000005345953
300.000000004721869
300.000000004090339
300.000000003451476
300.000000002805223
300.000000002151467
300.000000001490321
300.000000000821672
300.000000000145519
299.999999999461920
299.999999998771102
299.999999998073577
299.999999997369798
299.999999996660279
299.999999995945416
299.999999995225721
299.999999994501650
299.999999993773713
299.999999993042309
299.999999992307949
299.999999991571087
299.999999990832180
299.999999990091681
299.999999989350101
299.999999988607897
299.999999987865579
299.999999987123488
299.999999986382250
299.999999985642205
299.999999984903866
299.999999984167687
299.999999983434179
299.999999982703798
299.999999981976998
299.999999981254177
299.999999980535961
299.999999979822690
299.999999979114875
299.999999978412973
299.999999977717437
299.999999977028779
299.999999976347453
299.999999975673916
299.999999975008620
299.999999974352079
299.999999973704689
299.999999973067020
299.999999972439412
299.999999971822433
299.999999971216539
299.999999970622127
299.999999970039767
299.999999969469854
299.999999968912846
299.999999968369309
299.999999967839585
299.999999967324243
299.999999966823680
299.999999966338407
299.999999965868881
299.999999965415554
299.999999964978883
299.999999964559379
299.999999964157496
299.999999963773689
299.999999963408470
299.999999963062237
299.999999962735444
299.999999962428660
299.999999962142283
299.999999961876767
299.999999961632682
299.999999961410367
299.999999961210335
299.999999961033097
299.999999960879052
299.999999960748710
299.999999960642526
299.999999960561013
299.999999960504567
299.999999960473701
299.999999960468870
299.999999960490527
299.999999960539128
299.999999960615185
299.999999960719208
299.999999960851540
299.999999961012691
299.999999961203230
299.999999961423498
299.999999961674007
299.999999961955268
299.999999962267680
299.999999962611696
299.999999962987886
299.999999963396647
299.999999963838434
299.999999964313815
299.999999964823132
299.999999965366897
299.999999965945563
299.999999966559642
299.999999967209590
299.999999967895860
299.999999968618908
299.999999969379246
299.999999970177328
299.999999971013551
299.999999971888485
299.999999972802527
299.999999973756132
299.999999974749869
299.999999975784135
299.999999976859385
299.999999977976131
299.999999979134770
299.999999980335872
299.999999981579776
299.999999982867109
299.999999984198212
299.999999985573595
299.999999986993714
299.999999988459024
299.999999989970036
299.999999991527204
299.999999993131041
299.999999994781888
299.999999996480312
299.999999998226770
300.000000000021714
300.000000001865146
300.000000003755531
300.000000005690879
300.000000007669257
300.000000009688677
300.000000011747090
300.000000013842680
300.000000015973399
300.000000018137257
300.000000020332379
300.000000022556719
300.000000024808401
300.000000027085321
300.000000029385660
300.000000031707316
300.000000034048469
300.000000036407016
300.000000038781081
300.000000041168732
300.000000043567866
300.000000045976662
300.000000048393076
300.000000050815117
300.000000053240910
300.000000055668465
300.000000058095793
300.000000060520904
300.000000062941865
300.000000065356687
300.000000067763438
300.000000070160183
300.000000072544879
300.000000074915647
300.000000077270442
300.000000079607275
300.000000081924327
300.000000084219494
300.000000086490900
300.000000088736499
300.000000090954359
300.000000093142603
300.000000095299129
300.000000097422003
300.000000099509350
300.000000101559124
300.000000103569391
300.000000105538163
300.000000107463450
300.000000109343375
300.000000111175893
300.000000112959128
300.000000114690977
300.000000116369620
300.000000117993011
300.000000119559161
300.000000121066194
300.000000122512063
300.000000123894893
300.000000125212637
300.000000126463306
300.000000127645023
300.000000128755801
300.000000129793648
300.000000130756632
300.000000131642764
300.000000132450054
300.000000133176570
300.000000133820379
300.000000134379434
300.000000134851859
300.000000135235609
300.000000135528808
300.000000135729408
300.000000135835478
300.000000135845085
300.000000135756181
300.000000135566893
300.000000135275229
300.000000134879144
300.000000134376819
300.000000133766150
300.000000133045262
300.000000132212165
300.000000131264869
300.000000130201443
300.000000129019895
300.000000127718295
300.000000126294651
300.000000124747032
300.000000123073391
300.000000121271853
300.000000119340427
300.000000117277125
300.000000115080013
300.000000112747102
300.000000110276460
300.000000107666040
300.000000104913966
300.000000102018248
300.000000098976955
300.000000095788039
300.000000092449568
300.000000088959609
300.000000085316174
300.000000081517328
300.000000077561083
300.000000073445449
300.000000069168436
300.000000064728226
300.000000060122659
300.000000055349915
300.000000050408005
300.000000045294883
300.000000040008672
300.000000034547384
300.000000028909028
300.000000023091673
300.000000017093328
300.000000010912061
300.000000004545882
299.999999997992916
299.999999991259017
299.999999984363171
299.999999977325558
299.999999970166357
299.999999962905861
299.999999955564192
299.999999948161644