/*--------------------------------*- C++ -*----------------------------------*\
| =========                 |                                                 |
| \\      /  F ield         | OpenFOAM: The Open Source CFD Toolbox           |
|  \\    /   O peration     | Version:  5.x                                   |
|   \\  /    A nd           | Web:      www.OpenFOAM.org                      |
|    \\/     M anipulation  |                                                 |
\*---------------------------------------------------------------------------*/
FoamFile
{
    version     2.0;
    format      ascii;
    class       volVectorField;
    location    "0";
    object       U;
}
// * * * * * * * * * * * * * * * * * * * * * * * * * * * * * * * * * * * * * //

dimensions      [0 1 -1 0 0 0 0];

internalField   nonuniform List<vector>
4830
(
(2.286300272237464 0.0 0.0)
(2.286300272377741 0.0 0.0)
(2.286300272517682 0.0 0.0)
(2.286300272657287 0.0 0.0)
(2.286300272796555 0.0 0.0)
(2.286300272935489 0.0 0.0)
(2.286300273074088 0.0 0.0)
(2.286300273212353 0.0 0.0)
(2.286300273350283 0.0 0.0)
(2.286300273487879 0.0 0.0)
(2.286300273625142 0.0 0.0)
(2.286300273762073 0.0 0.0)
(2.286300273898671 0.0 0.0)
(2.286300274034936 0.0 0.0)
(2.286300274170870 0.0 0.0)
(2.286300274306472 0.0 0.0)
(2.286300274441743 0.0 0.0)
(2.286300274576684 0.0 0.0)
(2.286300274711294 0.0 0.0)
(2.286300274845575 0.0 0.0)
(2.286300274979525 0.0 0.0)
(2.286300275113147 0.0 0.0)
(2.286300275246440 0.0 0.0)
(2.286300275379404 0.0 0.0)
(2.286300275512041 0.0 0.0)
(2.286300275644349 0.0 0.0)
(2.286300275776331 0.0 0.0)
(2.286300275907986 0.0 0.0)
(2.286300276039314 0.0 0.0)
(2.286300276170316 0.0 0.0)
(2.286300276300993 0.0 0.0)
(2.286300276431344 0.0 0.0)
(2.286300276561370 0.0 0.0)
(2.286300276691071 0.0 0.0)
(2.286300276820449 0.0 0.0)
(2.286300276949502 0.0 0.0)
(2.286300277078232 0.0 0.0)
(2.286300277206639 0.0 0.0)
(2.286300277334723 0.0 0.0)
(2.286300277462485 0.0 0.0)
(2.286300277589925 0.0 0.0)
(2.286300277717044 0.0 0.0)
(2.286300277843841 0.0 0.0)
(2.286300277970318 0.0 0.0)
(2.286300278096474 0.0 0.0)
(2.286300278222310 0.0 0.0)
(2.286300278347827 0.0 0.0)
(2.286300278473024 0.0 0.0)
(2.286300278597902 0.0 0.0)
(2.286300278722462 0.0 0.0)
(2.286300278846704 0.0 0.0)
(2.286300278970628 0.0 0.0)
(2.286300279094235 0.0 0.0)
(2.286300279217524 0.0 0.0)
(2.286300279340497 0.0 0.0)
(2.286300279463154 0.0 0.0)
(2.286300279585495 0.0 0.0)
(2.286300279707520 0.0 0.0)
(2.286300279829231 0.0 0.0)
(2.286300279950627 0.0 0.0)
(2.286300280071708 0.0 0.0)
(2.286300280192476 0.0 0.0)
(2.286300280312930 0.0 0.0)
(2.286300280433071 0.0 0.0)
(2.286300280552898 0.0 0.0)
(2.286300280672414 0.0 0.0)
(2.286300280791618 0.0 0.0)
(2.286300280910510 0.0 0.0)
(2.286300281029090 0.0 0.0)
(2.286300281147360 0.0 0.0)
(2.286300281265319 0.0 0.0)
(2.286300281382968 0.0 0.0)
(2.286300281500308 0.0 0.0)
(2.286300281617338 0.0 0.0)
(2.286300281734059 0.0 0.0)
(2.286300281850471 0.0 0.0)
(2.286300281966575 0.0 0.0)
(2.286300282082371 0.0 0.0)
(2.286300282197860 0.0 0.0)
(2.286300282313042 0.0 0.0)
(2.286300282427917 0.0 0.0)
(2.286300282542486 0.0 0.0)
(2.286300282656748 0.0 0.0)
(2.286300282770706 0.0 0.0)
(2.286300282884357 0.0 0.0)
(2.286300282997705 0.0 0.0)
(2.286300283110748 0.0 0.0)
(2.286300283223486 0.0 0.0)
(2.286300283335921 0.0 0.0)
(2.286300283448053 0.0 0.0)
(2.286300283559882 0.0 0.0)
(2.286300283671408 0.0 0.0)
(2.286300283782632 0.0 0.0)
(2.286300283893555 0.0 0.0)
(2.286300284004176 0.0 0.0)
(2.286300284114496 0.0 0.0)
(2.286300284224515 0.0 0.0)
(2.286300284334235 0.0 0.0)
(2.286300284443654 0.0 0.0)
(2.286300284552774 0.0 0.0)
(2.286300284661595 0.0 0.0)
(2.286300284770116 0.0 0.0)
(2.286300284878340 0.0 0.0)
(2.286300284986266 0.0 0.0)
(2.286300285093894 0.0 0.0)
(2.286300285201225 0.0 0.0)
(2.286300285308259 0.0 0.0)
(2.286300285414997 0.0 0.0)
(2.286300285521438 0.0 0.0)
(2.286300285627584 0.0 0.0)
(2.286300285733435 0.0 0.0)
(2.286300285838990 0.0 0.0)
(2.286300285944252 0.0 0.0)
(2.286300286049219 0.0 0.0)
(2.286300286153892 0.0 0.0)
(2.286300286258272 0.0 0.0)
(2.286300286362359 0.0 0.0)
(2.286300286466153 0.0 0.0)
(2.286300286569655 0.0 0.0)
(2.286300286672865 0.0 0.0)
(2.286300286775784 0.0 0.0)
(2.286300286878411 0.0 0.0)
(2.286300286980748 0.0 0.0)
(2.286300287082794 0.0 0.0)
(2.286300287184551 0.0 0.0)
(2.286300287286017 0.0 0.0)
(2.286300287387195 0.0 0.0)
(2.286300287488084 0.0 0.0)
(2.286300287588684 0.0 0.0)
(2.286300287688996 0.0 0.0)
(2.286300287789021 0.0 0.0)
(2.286300287888758 0.0 0.0)
(2.286300287988209 0.0 0.0)
(2.286300288087372 0.0 0.0)
(2.286300288186250 0.0 0.0)
(2.286300288284842 0.0 0.0)
(2.286300288383148 0.0 0.0)
(2.286300288481170 0.0 0.0)
(2.286300288578907 0.0 0.0)
(2.286300288676359 0.0 0.0)
(2.286300288773528 0.0 0.0)
(2.286300288870413 0.0 0.0)
(2.286300288967015 0.0 0.0)
(2.286300289063334 0.0 0.0)
(2.286300289159371 0.0 0.0)
(2.286300289255126 0.0 0.0)
(2.286300289350599 0.0 0.0)
(2.286300289445791 0.0 0.0)
(2.286300289540702 0.0 0.0)
(2.286300289635333 0.0 0.0)
(2.286300289729684 0.0 0.0)
(2.286300289823755 0.0 0.0)
(2.286300289917546 0.0 0.0)
(2.286300290011059 0.0 0.0)
(2.286300290104293 0.0 0.0)
(2.286300290197249 0.0 0.0)
(2.286300290289927 0.0 0.0)
(2.286300290382328 0.0 0.0)
(2.286300290474452 0.0 0.0)
(2.286300290566299 0.0 0.0)
(2.286300290657870 0.0 0.0)
(2.286300290749165 0.0 0.0)
(2.286300290840184 0.0 0.0)
(2.286300290930928 0.0 0.0)
(2.286300291021398 0.0 0.0)
(2.286300291111593 0.0 0.0)
(2.286300291201514 0.0 0.0)
(2.286300291291161 0.0 0.0)
(2.286300291380535 0.0 0.0)
(2.286300291469637 0.0 0.0)
(2.286300291558466 0.0 0.0)
(2.286300291647023 0.0 0.0)
(2.286300291735308 0.0 0.0)
(2.286300291823322 0.0 0.0)
(2.286300291911064 0.0 0.0)
(2.286300291998537 0.0 0.0)
(2.286300292085739 0.0 0.0)
(2.286300292172671 0.0 0.0)
(2.286300292259334 0.0 0.0)
(2.286300292345728 0.0 0.0)
(2.286300292431853 0.0 0.0)
(2.286300292517709 0.0 0.0)
(2.286300292603298 0.0 0.0)
(2.286300292688620 0.0 0.0)
(2.286300292773674 0.0 0.0)
(2.286300292858462 0.0 0.0)
(2.286300292942983 0.0 0.0)
(2.286300293027238 0.0 0.0)
(2.286300293111227 0.0 0.0)
(2.286300293194951 0.0 0.0)
(2.286300293278411 0.0 0.0)
(2.286300293361605 0.0 0.0)
(2.286300293444536 0.0 0.0)
(2.286300293527203 0.0 0.0)
(2.286300293609607 0.0 0.0)
(2.286300293691748 0.0 0.0)
(2.286300293773626 0.0 0.0)
(2.286300293855242 0.0 0.0)
(2.286300293936596 0.0 0.0)
(2.286300294017688 0.0 0.0)
(2.286300294098520 0.0 0.0)
(2.286300294179091 0.0 0.0)
(2.286300294259402 0.0 0.0)
(2.286300294339452 0.0 0.0)
(2.286300294419243 0.0 0.0)
(2.286300294498775 0.0 0.0)
(2.286300294578048 0.0 0.0)
(2.286300294657063 0.0 0.0)
(2.286300294735820 0.0 0.0)
(2.286300294814319 0.0 0.0)
(2.286300294892561 0.0 0.0)
(2.286300294970546 0.0 0.0)
(2.286300295048274 0.0 0.0)
(2.286300295125747 0.0 0.0)
(2.286300295202963 0.0 0.0)
(2.286300295279925 0.0 0.0)
(2.286300295356631 0.0 0.0)
(2.286300295433083 0.0 0.0)
(2.286300295509280 0.0 0.0)
(2.286300295585224 0.0 0.0)
(2.286300295660914 0.0 0.0)
(2.286300295736351 0.0 0.0)
(2.286300295811535 0.0 0.0)
(2.286300295886468 0.0 0.0)
(2.286300295961148 0.0 0.0)
(2.286300296035577 0.0 0.0)
(2.286300296109754 0.0 0.0)
(2.286300296183681 0.0 0.0)
(2.286300296257357 0.0 0.0)
(2.286300296330783 0.0 0.0)
(2.286300296403960 0.0 0.0)
(2.286300296476887 0.0 0.0)
(2.286300296549566 0.0 0.0)
(2.286300296621995 0.0 0.0)
(2.286300296694177 0.0 0.0)
(2.286300296766111 0.0 0.0)
(2.286300296837798 0.0 0.0)
(2.286300296909237 0.0 0.0)
(2.286300296980431 0.0 0.0)
(2.286300297051377 0.0 0.0)
(2.286300297122078 0.0 0.0)
(2.286300297192534 0.0 0.0)
(2.286300297262744 0.0 0.0)
(2.286300297332710 0.0 0.0)
(2.286300297402431 0.0 0.0)
(2.286300297471909 0.0 0.0)
(2.286300297541143 0.0 0.0)
(2.286300297610134 0.0 0.0)
(2.286300297678881 0.0 0.0)
(2.286300297747387 0.0 0.0)
(2.286300297815650 0.0 0.0)
(2.286300297883672 0.0 0.0)
(2.286300297951453 0.0 0.0)
(2.286300298018992 0.0 0.0)
(2.286300298086291 0.0 0.0)
(2.286300298153350 0.0 0.0)
(2.286300298220169 0.0 0.0)
(2.286300298286749 0.0 0.0)
(2.286300298353090 0.0 0.0)
(2.286300298419192 0.0 0.0)
(2.286300298485056 0.0 0.0)
(2.286300298550682 0.0 0.0)
(2.286300298616071 0.0 0.0)
(2.286300298681222 0.0 0.0)
(2.286300298746137 0.0 0.0)
(2.286300298810815 0.0 0.0)
(2.286300298875258 0.0 0.0)
(2.286300298939465 0.0 0.0)
(2.286300299003436 0.0 0.0)
(2.286300299067173 0.0 0.0)
(2.286300299130676 0.0 0.0)
(2.286300299193944 0.0 0.0)
(2.286300299256979 0.0 0.0)
(2.286300299319780 0.0 0.0)
(2.286300299382349 0.0 0.0)
(2.286300299444685 0.0 0.0)
(2.286300299506788 0.0 0.0)
(2.286300299568660 0.0 0.0)
(2.286300299630301 0.0 0.0)
(2.286300299691711 0.0 0.0)
(2.286300299752890 0.0 0.0)
(2.286300299813838 0.0 0.0)
(2.286300299874557 0.0 0.0)
(2.286300299935047 0.0 0.0)
(2.286300299995307 0.0 0.0)
(2.286300300055339 0.0 0.0)
(2.286300300115142 0.0 0.0)
(2.286300300174717 0.0 0.0)
(2.286300300234065 0.0 0.0)
(2.286300300293185 0.0 0.0)
(2.286300300352079 0.0 0.0)
(2.286300300410746 0.0 0.0)
(2.286300300469187 0.0 0.0)
(2.286300300527402 0.0 0.0)
(2.286300300585393 0.0 0.0)
(2.286300300643158 0.0 0.0)
(2.286300300700698 0.0 0.0)
(2.286300300758015 0.0 0.0)
(2.286300300815108 0.0 0.0)
(2.286300300871977 0.0 0.0)
(2.286300300928623 0.0 0.0)
(2.286300300985046 0.0 0.0)
(2.286300301041248 0.0 0.0)
(2.286300301097227 0.0 0.0)
(2.286300301152985 0.0 0.0)
(2.286300301208522 0.0 0.0)
(2.286300301263838 0.0 0.0)
(2.286300301318934 0.0 0.0)
(2.286300301373810 0.0 0.0)
(2.286300301428466 0.0 0.0)
(2.286300301482903 0.0 0.0)
(2.286300301537121 0.0 0.0)
(2.286300301591121 0.0 0.0)
(2.286300301644902 0.0 0.0)
(2.286300301698466 0.0 0.0)
(2.286300301751813 0.0 0.0)
(2.286300301804942 0.0 0.0)
(2.286300301857855 0.0 0.0)
(2.286300301910552 0.0 0.0)
(2.286300301963033 0.0 0.0)
(2.286300302015299 0.0 0.0)
(2.286300302067349 0.0 0.0)
(2.286300302119185 0.0 0.0)
(2.286300302170807 0.0 0.0)
(2.286300302222215 0.0 0.0)
(2.286300302273409 0.0 0.0)
(2.286300302324390 0.0 0.0)
(2.286300302375158 0.0 0.0)
(2.286300302425714 0.0 0.0)
(2.286300302476058 0.0 0.0)
(2.286300302526191 0.0 0.0)
(2.286300302576112 0.0 0.0)
(2.286300302625822 0.0 0.0)
(2.286300302675322 0.0 0.0)
(2.286300302724612 0.0 0.0)
(2.286300302773692 0.0 0.0)
(2.286300302822562 0.0 0.0)
(2.286300302871224 0.0 0.0)
(2.286300302919678 0.0 0.0)
(2.286300302967923 0.0 0.0)
(2.286300303015960 0.0 0.0)
(2.286300303063789 0.0 0.0)
(2.286300303111412 0.0 0.0)
(2.286300303158828 0.0 0.0)
(2.286300303206038 0.0 0.0)
(2.286300303253042 0.0 0.0)
(2.286300303299840 0.0 0.0)
(2.286300303346433 0.0 0.0)
(2.286300303392822 0.0 0.0)
(2.286300303439006 0.0 0.0)
(2.286300303484986 0.0 0.0)
(2.286300303530762 0.0 0.0)
(2.286300303576335 0.0 0.0)
(2.286300303621705 0.0 0.0)
(2.286300303666873 0.0 0.0)
(2.286300303711839 0.0 0.0)
(2.286300303756603 0.0 0.0)
(2.286300303801165 0.0 0.0)
(2.286300303845527 0.0 0.0)
(2.286300303889688 0.0 0.0)
(2.286300303933649 0.0 0.0)
(2.286300303977410 0.0 0.0)
(2.286300304020972 0.0 0.0)
(2.286300304064334 0.0 0.0)
(2.286300304107498 0.0 0.0)
(2.286300304150464 0.0 0.0)
(2.286300304193232 0.0 0.0)
(2.286300304235802 0.0 0.0)
(2.286300304278174 0.0 0.0)
(2.286300304320351 0.0 0.0)
(2.286300304362331 0.0 0.0)
(2.286300304404114 0.0 0.0)
(2.286300304445703 0.0 0.0)
(2.286300304487095 0.0 0.0)
(2.286300304528293 0.0 0.0)
(2.286300304569297 0.0 0.0)
(2.286300304610106 0.0 0.0)
(2.286300304650722 0.0 0.0)
(2.286300304691144 0.0 0.0)
(2.286300304731374 0.0 0.0)
(2.286300304771410 0.0 0.0)
(2.286300304811255 0.0 0.0)
(2.286300304850907 0.0 0.0)
(2.286300304890369 0.0 0.0)
(2.286300304929639 0.0 0.0)
(2.286300304968718 0.0 0.0)
(2.286300305007607 0.0 0.0)
(2.286300305046307 0.0 0.0)
(2.286300305084816 0.0 0.0)
(2.286300305123137 0.0 0.0)
(2.286300305161268 0.0 0.0)
(2.286300305199212 0.0 0.0)
(2.286300305236967 0.0 0.0)
(2.286300305274535 0.0 0.0)
(2.286300305311915 0.0 0.0)
(2.286300305349108 0.0 0.0)
(2.286300305386116 0.0 0.0)
(2.286300305422936 0.0 0.0)
(2.286300305459572 0.0 0.0)
(2.286300305496021 0.0 0.0)
(2.286300305532286 0.0 0.0)
(2.286300305568366 0.0 0.0)
(2.286300305604262 0.0 0.0)
(2.286300305639974 0.0 0.0)
(2.286300305675502 0.0 0.0)
(2.286300305710848 0.0 0.0)
(2.286300305746011 0.0 0.0)
(2.286300305780991 0.0 0.0)
(2.286300305815790 0.0 0.0)
(2.286300305850407 0.0 0.0)
(2.286300305884843 0.0 0.0)
(2.286300305919098 0.0 0.0)
(2.286300305953172 0.0 0.0)
(2.286300305987067 0.0 0.0)
(2.286300306020782 0.0 0.0)
(2.286300306054317 0.0 0.0)
(2.286300306087674 0.0 0.0)
(2.286300306120852 0.0 0.0)
(2.286300306153852 0.0 0.0)
(2.286300306186674 0.0 0.0)
(2.286300306219319 0.0 0.0)
(2.286300306251787 0.0 0.0)
(2.286300306284078 0.0 0.0)
(2.286300306316194 0.0 0.0)
(2.286300306348133 0.0 0.0)
(2.286300306379896 0.0 0.0)
(2.286300306411485 0.0 0.0)
(2.286300306442899 0.0 0.0)
(2.286300306474138 0.0 0.0)
(2.286300306505204 0.0 0.0)
(2.286300306536096 0.0 0.0)
(2.286300306566815 0.0 0.0)
(2.286300306597361 0.0 0.0)
(2.286300306627735 0.0 0.0)
(2.286300306657936 0.0 0.0)
(2.286300306687966 0.0 0.0)
(2.286300306717825 0.0 0.0)
(2.286300306747512 0.0 0.0)
(2.286300306777029 0.0 0.0)
(2.286300306806376 0.0 0.0)
(2.286300306835554 0.0 0.0)
(2.286300306864561 0.0 0.0)
(2.286300306893400 0.0 0.0)
(2.286300306922070 0.0 0.0)
(2.286300306950572 0.0 0.0)
(2.286300306978906 0.0 0.0)
(2.286300307007073 0.0 0.0)
(2.286300307035072 0.0 0.0)
(2.286300307062905 0.0 0.0)
(2.286300307090571 0.0 0.0)
(2.286300307118072 0.0 0.0)
(2.286300307145407 0.0 0.0)
(2.286300307172576 0.0 0.0)
(2.286300307199581 0.0 0.0)
(2.286300307226421 0.0 0.0)
(2.286300307253098 0.0 0.0)
(2.286300307279610 0.0 0.0)
(2.286300307305960 0.0 0.0)
(2.286300307332146 0.0 0.0)
(2.286300307358170 0.0 0.0)
(2.286300307384031 0.0 0.0)
(2.286300307409731 0.0 0.0)
(2.286300307435270 0.0 0.0)
(2.286300307460647 0.0 0.0)
(2.286300307485864 0.0 0.0)
(2.286300307510921 0.0 0.0)
(2.286300307535817 0.0 0.0)
(2.286300307560555 0.0 0.0)
(2.286300307585132 0.0 0.0)
(2.286300307609552 0.0 0.0)
(2.286300307633813 0.0 0.0)
(2.286300307657916 0.0 0.0)
(2.286300307681861 0.0 0.0)
(2.286300307705649 0.0 0.0)
(2.286300307729281 0.0 0.0)
(2.286300307752756 0.0 0.0)
(2.286300307776074 0.0 0.0)
(2.286300307799237 0.0 0.0)
(2.286300307822245 0.0 0.0)
(2.286300307845098 0.0 0.0)
(2.286300307867796 0.0 0.0)
(2.286300307890340 0.0 0.0)
(2.286300307912731 0.0 0.0)
(2.286300307934968 0.0 0.0)
(2.286300307957051 0.0 0.0)
(2.286300307978983 0.0 0.0)
(2.286300308000762 0.0 0.0)
(2.286300308022388 0.0 0.0)
(2.286300308043864 0.0 0.0)
(2.286300308065188 0.0 0.0)
(2.286300308086362 0.0 0.0)
(2.286300308107385 0.0 0.0)
(2.286300308128259 0.0 0.0)
(2.286300308148982 0.0 0.0)
(2.286300308169557 0.0 0.0)
(2.286300308189982 0.0 0.0)
(2.286300308210259 0.0 0.0)
(2.286300308230389 0.0 0.0)
(2.286300308250370 0.0 0.0)
(2.286300308270204 0.0 0.0)
(2.286300308289891 0.0 0.0)
(2.286300308309431 0.0 0.0)
(2.286300308328825 0.0 0.0)
(2.286300308348074 0.0 0.0)
(2.286300308367177 0.0 0.0)
(2.286300308386135 0.0 0.0)
(2.286300308404948 0.0 0.0)
(2.286300308423618 0.0 0.0)
(2.286300308442143 0.0 0.0)
(2.286300308460524 0.0 0.0)
(2.286300308478763 0.0 0.0)
(2.286300308496859 0.0 0.0)
(2.286300308514812 0.0 0.0)
(2.286300308532623 0.0 0.0)
(2.286300308550293 0.0 0.0)
(2.286300308567821 0.0 0.0)
(2.286300308585209 0.0 0.0)
(2.286300308602456 0.0 0.0)
(2.286300308619563 0.0 0.0)
(2.286300308636530 0.0 0.0)
(2.286300308653358 0.0 0.0)
(2.286300308670048 0.0 0.0)
(2.286300308686598 0.0 0.0)
(2.286300308703010 0.0 0.0)
(2.286300308719285 0.0 0.0)
(2.286300308735421 0.0 0.0)
(2.286300308751422 0.0 0.0)
(2.286300308767284 0.0 0.0)
(2.286300308783011 0.0 0.0)
(2.286300308798602 0.0 0.0)
(2.286300308814058 0.0 0.0)
(2.286300308829378 0.0 0.0)
(2.286300308844564 0.0 0.0)
(2.286300308859615 0.0 0.0)
(2.286300308874532 0.0 0.0)
(2.286300308889316 0.0 0.0)
(2.286300308903966 0.0 0.0)
(2.286300308918483 0.0 0.0)
(2.286300308932868 0.0 0.0)
(2.286300308947121 0.0 0.0)
(2.286300308961242 0.0 0.0)
(2.286300308975232 0.0 0.0)
(2.286300308989091 0.0 0.0)
(2.286300309002819 0.0 0.0)
(2.286300309016416 0.0 0.0)
(2.286300309029885 0.0 0.0)
(2.286300309043223 0.0 0.0)
(2.286300309056433 0.0 0.0)
(2.286300309069514 0.0 0.0)
(2.286300309082466 0.0 0.0)
(2.286300309095291 0.0 0.0)
(2.286300309107988 0.0 0.0)
(2.286300309120558 0.0 0.0)
(2.286300309133001 0.0 0.0)
(2.286300309145318 0.0 0.0)
(2.286300309157508 0.0 0.0)
(2.286300309169573 0.0 0.0)
(2.286300309181513 0.0 0.0)
(2.286300309193328 0.0 0.0)
(2.286300309205018 0.0 0.0)
(2.286300309216585 0.0 0.0)
(2.286300309228027 0.0 0.0)
(2.286300309239346 0.0 0.0)
(2.286300309250543 0.0 0.0)
(2.286300309261616 0.0 0.0)
(2.286300309272567 0.0 0.0)
(2.286300309283397 0.0 0.0)
(2.286300309294105 0.0 0.0)
(2.286300309304692 0.0 0.0)
(2.286300309315158 0.0 0.0)
(2.286300309325504 0.0 0.0)
(2.286300309335730 0.0 0.0)
(2.286300309345837 0.0 0.0)
(2.286300309355824 0.0 0.0)
(2.286300309365692 0.0 0.0)
(2.286300309375442 0.0 0.0)
(2.286300309385074 0.0 0.0)
(2.286300309394589 0.0 0.0)
(2.286300309403986 0.0 0.0)
(2.286300309413266 0.0 0.0)
(2.286300309422430 0.0 0.0)
(2.286300309431477 0.0 0.0)
(2.286300309440409 0.0 0.0)
(2.286300309449225 0.0 0.0)
(2.286300309457927 0.0 0.0)
(2.286300309466513 0.0 0.0)
(2.286300309474986 0.0 0.0)
(2.286300309483345 0.0 0.0)
(2.286300309491589 0.0 0.0)
(2.286300309499722 0.0 0.0)
(2.286300309507741 0.0 0.0)
(2.286300309515648 0.0 0.0)
(2.286300309523444 0.0 0.0)
(2.286300309531127 0.0 0.0)
(2.286300309538699 0.0 0.0)
(2.286300309546161 0.0 0.0)
(2.286300309553512 0.0 0.0)
(2.286300309560753 0.0 0.0)
(2.286300309567884 0.0 0.0)
(2.286300309574906 0.0 0.0)
(2.286300309581820 0.0 0.0)
(2.286300309588624 0.0 0.0)
(2.286300309595321 0.0 0.0)
(2.286300309601909 0.0 0.0)
(2.286300309608391 0.0 0.0)
(2.286300309614765 0.0 0.0)
(2.286300309621033 0.0 0.0)
(2.286300309627194 0.0 0.0)
(2.286300309633250 0.0 0.0)
(2.286300309639200 0.0 0.0)
(2.286300309645045 0.0 0.0)
(2.286300309650785 0.0 0.0)
(2.286300309656421 0.0 0.0)
(2.286300309661953 0.0 0.0)
(2.286300309667381 0.0 0.0)
(2.286300309672707 0.0 0.0)
(2.286300309677929 0.0 0.0)
(2.286300309683049 0.0 0.0)
(2.286300309688067 0.0 0.0)
(2.286300309692983 0.0 0.0)
(2.286300309697798 0.0 0.0)
(2.286300309702512 0.0 0.0)
(2.286300309707125 0.0 0.0)
(2.286300309711638 0.0 0.0)
(2.286300309716052 0.0 0.0)
(2.286300309720366 0.0 0.0)
(2.286300309724581 0.0 0.0)
(2.286300309728697 0.0 0.0)
(2.286300309732715 0.0 0.0)
(2.286300309736636 0.0 0.0)
(2.286300309740458 0.0 0.0)
(2.286300309744184 0.0 0.0)
(2.286300309747813 0.0 0.0)
(2.286300309751346 0.0 0.0)
(2.286300309754782 0.0 0.0)
(2.286300309758123 0.0 0.0)
(2.286300309761369 0.0 0.0)
(2.286300309764520 0.0 0.0)
(2.286300309767576 0.0 0.0)
(2.286300309770539 0.0 0.0)
(2.286300309773407 0.0 0.0)
(2.286300309776183 0.0 0.0)
(2.286300309778865 0.0 0.0)
(2.286300309781455 0.0 0.0)
(2.286300309783953 0.0 0.0)
(2.286300309786359 0.0 0.0)
(2.286300309788673 0.0 0.0)
(2.286300309790897 0.0 0.0)
(2.286300309793030 0.0 0.0)
(2.286300309795072 0.0 0.0)
(2.286300309797025 0.0 0.0)
(2.286300309798888 0.0 0.0)
(2.286300309800662 0.0 0.0)
(2.286300309802347 0.0 0.0)
(2.286300309803944 0.0 0.0)
(2.286300309805453 0.0 0.0)
(2.286300309806875 0.0 0.0)
(2.286300309808209 0.0 0.0)
(2.286300309809456 0.0 0.0)
(2.286300309810616 0.0 0.0)
(2.286300309811691 0.0 0.0)
(2.286300309812680 0.0 0.0)
(2.286300309813584 0.0 0.0)
(2.286300309814402 0.0 0.0)
(2.286300309815137 0.0 0.0)
(2.286300309815787 0.0 0.0)
(2.286300309816353 0.0 0.0)
(2.286300309816836 0.0 0.0)
(2.286300309817235 0.0 0.0)
(2.286300309817552 0.0 0.0)
(2.286300309817787 0.0 0.0)
(2.286300309817940 0.0 0.0)
(2.286300309818011 0.0 0.0)
(2.286300309818001 0.0 0.0)
(2.286300309817911 0.0 0.0)
(2.286300309817740 0.0 0.0)
(2.286300309817489 0.0 0.0)
(2.286300309817158 0.0 0.0)
(2.286300309816748 0.0 0.0)
(2.286300309816260 0.0 0.0)
(2.286300309815692 0.0 0.0)
(2.286300309815047 0.0 0.0)
(2.286300309814324 0.0 0.0)
(2.286300309813524 0.0 0.0)
(2.286300309812646 0.0 0.0)
(2.286300309811693 0.0 0.0)
(2.286300309810663 0.0 0.0)
(2.286300309809557 0.0 0.0)
(2.286300309808376 0.0 0.0)
(2.286300309807119 0.0 0.0)
(2.286300309805788 0.0 0.0)
(2.286300309804383 0.0 0.0)
(2.286300309802904 0.0 0.0)
(2.286300309801351 0.0 0.0)
(2.286300309799725 0.0 0.0)
(2.286300309798026 0.0 0.0)
(2.286300309796255 0.0 0.0)
(2.286300309794412 0.0 0.0)
(2.286300309792497 0.0 0.0)
(2.286300309790511 0.0 0.0)
(2.286300309788454 0.0 0.0)
(2.286300309786327 0.0 0.0)
(2.286300309784129 0.0 0.0)
(2.286300309781862 0.0 0.0)
(2.286300309779526 0.0 0.0)
(2.286300309777120 0.0 0.0)
(2.286300309774646 0.0 0.0)
(2.286300309772104 0.0 0.0)
(2.286300309769493 0.0 0.0)
(2.286300309766816 0.0 0.0)
(2.286300309764071 0.0 0.0)
(2.286300309761260 0.0 0.0)
(2.286300309758382 0.0 0.0)
(2.286300309755439 0.0 0.0)
(2.286300309752430 0.0 0.0)
(2.286300309749355 0.0 0.0)
(2.286300309746216 0.0 0.0)
(2.286300309743013 0.0 0.0)
(2.286300309739745 0.0 0.0)
(2.286300309736414 0.0 0.0)
(2.286300309733019 0.0 0.0)
(2.286300309729562 0.0 0.0)
(2.286300309726042 0.0 0.0)
(2.286300309722460 0.0 0.0)
(2.286300309718817 0.0 0.0)
(2.286300309715112 0.0 0.0)
(2.286300309711346 0.0 0.0)
(2.286300309707519 0.0 0.0)
(2.286300309703632 0.0 0.0)
(2.286300309699686 0.0 0.0)
(2.286300309695680 0.0 0.0)
(2.286300309691614 0.0 0.0)
(2.286300309687491 0.0 0.0)
(2.286300309683308 0.0 0.0)
(2.286300309679068 0.0 0.0)
(2.286300309674770 0.0 0.0)
(2.286300309670415 0.0 0.0)
(2.286300309666004 0.0 0.0)
(2.286300309661535 0.0 0.0)
(2.286300309657011 0.0 0.0)
(2.286300309652431 0.0 0.0)
(2.286300309647797 0.0 0.0)
(2.286300309643106 0.0 0.0)
(2.286300309638362 0.0 0.0)
(2.286300309633563 0.0 0.0)
(2.286300309628711 0.0 0.0)
(2.286300309623805 0.0 0.0)
(2.286300309618846 0.0 0.0)
(2.286300309613835 0.0 0.0)
(2.286300309608771 0.0 0.0)
(2.286300309603656 0.0 0.0)
(2.286300309598489 0.0 0.0)
(2.286300309593271 0.0 0.0)
(2.286300309588002 0.0 0.0)
(2.286300309582683 0.0 0.0)
(2.286300309577314 0.0 0.0)
(2.286300309571895 0.0 0.0)
(2.286300309566428 0.0 0.0)
(2.286300309560911 0.0 0.0)
(2.286300309555346 0.0 0.0)
(2.286300309549733 0.0 0.0)
(2.286300309544072 0.0 0.0)
(2.286300309538364 0.0 0.0)
(2.286300309532609 0.0 0.0)
(2.286300309526808 0.0 0.0)
(2.286300309520960 0.0 0.0)
(2.286300309515067 0.0 0.0)
(2.286300309509128 0.0 0.0)
(2.286300309503144 0.0 0.0)
(2.286300309497116 0.0 0.0)
(2.286300309491043 0.0 0.0)
(2.286300309484927 0.0 0.0)
(2.286300309478767 0.0 0.0)
(2.286300309472564 0.0 0.0)
(2.286300309466318 0.0 0.0)
(2.286300309460030 0.0 0.0)
(2.286300309453700 0.0 0.0)
(2.286300309447328 0.0 0.0)
(2.286300309440915 0.0 0.0)
(2.286300309434461 0.0 0.0)
(2.286300309427967 0.0 0.0)
(2.286300309421433 0.0 0.0)
(2.286300309414859 0.0 0.0)
(2.286300309408246 0.0 0.0)
(2.286300309401594 0.0 0.0)
(2.286300309394903 0.0 0.0)
(2.286300309388174 0.0 0.0)
(2.286300309381408 0.0 0.0)
(2.286300309374603 0.0 0.0)
(2.286300309367763 0.0 0.0)
(2.286300309360885 0.0 0.0)
(2.286300309353971 0.0 0.0)
(2.286300309347021 0.0 0.0)
(2.286300309340036 0.0 0.0)
(2.286300309333015 0.0 0.0)
(2.286300309325961 0.0 0.0)
(2.286300309318871 0.0 0.0)
(2.286300309311748 0.0 0.0)
(2.286300309304591 0.0 0.0)
(2.286300309297400 0.0 0.0)
(2.286300309290177 0.0 0.0)
(2.286300309282922 0.0 0.0)
(2.286300309275634 0.0 0.0)
(2.286300309268315 0.0 0.0)
(2.286300309260964 0.0 0.0)
(2.286300309253583 0.0 0.0)
(2.286300309246170 0.0 0.0)
(2.286300309238728 0.0 0.0)
(2.286300309231256 0.0 0.0)
(2.286300309223754 0.0 0.0)
(2.286300309216224 0.0 0.0)
(2.286300309208665 0.0 0.0)
(2.286300309201077 0.0 0.0)
(2.286300309193462 0.0 0.0)
(2.286300309185819 0.0 0.0)
(2.286300309178149 0.0 0.0)
(2.286300309170453 0.0 0.0)
(2.286300309162729 0.0 0.0)
(2.286300309154981 0.0 0.0)
(2.286300309147206 0.0 0.0)
(2.286300309139406 0.0 0.0)
(2.286300309131581 0.0 0.0)
(2.286300309123732 0.0 0.0)
(2.286300309115858 0.0 0.0)
(2.286300309107962 0.0 0.0)
(2.286300309100041 0.0 0.0)
(2.286300309092098 0.0 0.0)
(2.286300309084132 0.0 0.0)
(2.286300309076144 0.0 0.0)
(2.286300309068134 0.0 0.0)
(2.286300309060103 0.0 0.0)
(2.286300309052051 0.0 0.0)
(2.286300309043978 0.0 0.0)
(2.286300309035885 0.0 0.0)
(2.286300309027772 0.0 0.0)
(2.286300309019639 0.0 0.0)
(2.286300309011487 0.0 0.0)
(2.286300309003317 0.0 0.0)
(2.286300308995128 0.0 0.0)
(2.286300308986921 0.0 0.0)
(2.286300308978697 0.0 0.0)
(2.286300308970455 0.0 0.0)
(2.286300308962196 0.0 0.0)
(2.286300308953921 0.0 0.0)
(2.286300308945630 0.0 0.0)
(2.286300308937323 0.0 0.0)
(2.286300308929001 0.0 0.0)
(2.286300308920663 0.0 0.0)
(2.286300308912312 0.0 0.0)
(2.286300308903946 0.0 0.0)
(2.286300308895566 0.0 0.0)
(2.286300308887173 0.0 0.0)
(2.286300308878766 0.0 0.0)
(2.286300308870348 0.0 0.0)
(2.286300308861916 0.0 0.0)
(2.286300308853473 0.0 0.0)
(2.286300308845019 0.0 0.0)
(2.286300308836553 0.0 0.0)
(2.286300308828076 0.0 0.0)
(2.286300308819589 0.0 0.0)
(2.286300308811092 0.0 0.0)
(2.286300308802586 0.0 0.0)
(2.286300308794070 0.0 0.0)
(2.286300308785545 0.0 0.0)
(2.286300308777012 0.0 0.0)
(2.286300308768470 0.0 0.0)
(2.286300308759921 0.0 0.0)
(2.286300308751365 0.0 0.0)
(2.286300308742801 0.0 0.0)
(2.286300308734231 0.0 0.0)
(2.286300308725655 0.0 0.0)
(2.286300308717073 0.0 0.0)
(2.286300308708486 0.0 0.0)
(2.286300308699893 0.0 0.0)
(2.286300308691296 0.0 0.0)
(2.286300308682694 0.0 0.0)
(2.286300308674089 0.0 0.0)
(2.286300308665480 0.0 0.0)
(2.286300308656868 0.0 0.0)
(2.286300308648253 0.0 0.0)
(2.286300308639635 0.0 0.0)
(2.286300308631016 0.0 0.0)
(2.286300308622395 0.0 0.0)
(2.286300308613773 0.0 0.0)
(2.286300308605150 0.0 0.0)
(2.286300308596526 0.0 0.0)
(2.286300308587903 0.0 0.0)
(2.286300308579279 0.0 0.0)
(2.286300308570656 0.0 0.0)
(2.286300308562034 0.0 0.0)
(2.286300308553414 0.0 0.0)
(2.286300308544795 0.0 0.0)
(2.286300308536179 0.0 0.0)
(2.286300308527565 0.0 0.0)
(2.286300308518954 0.0 0.0)
(2.286300308510346 0.0 0.0)
(2.286300308501742 0.0 0.0)
(2.286300308493142 0.0 0.0)
(2.286300308484546 0.0 0.0)
(2.286300308475956 0.0 0.0)
(2.286300308467370 0.0 0.0)
(2.286300308458790 0.0 0.0)
(2.286300308450216 0.0 0.0)
(2.286300308441648 0.0 0.0)
(2.286300308433088 0.0 0.0)
(2.286300308424534 0.0 0.0)
(2.286300308415988 0.0 0.0)
(2.286300308407449 0.0 0.0)
(2.286300308398919 0.0 0.0)
(2.286300308390397 0.0 0.0)
(2.286300308381885 0.0 0.0)
(2.286300308373382 0.0 0.0)
(2.286300308364889 0.0 0.0)
(2.286300308356405 0.0 0.0)
(2.286300308347933 0.0 0.0)
(2.286300308339471 0.0 0.0)
(2.286300308331020 0.0 0.0)
(2.286300308322581 0.0 0.0)
(2.286300308314154 0.0 0.0)
(2.286300308305740 0.0 0.0)
(2.286300308297339 0.0 0.0)
(2.286300308288951 0.0 0.0)
(2.286300308280576 0.0 0.0)
(2.286300308272215 0.0 0.0)
(2.286300308263868 0.0 0.0)
(2.286300308255536 0.0 0.0)
(2.286300308247220 0.0 0.0)
(2.286300308238919 0.0 0.0)
(2.286300308230633 0.0 0.0)
(2.286300308222364 0.0 0.0)
(2.286300308214112 0.0 0.0)
(2.286300308205876 0.0 0.0)
(2.286300308197658 0.0 0.0)
(2.286300308189458 0.0 0.0)
(2.286300308181276 0.0 0.0)
(2.286300308173112 0.0 0.0)
(2.286300308164967 0.0 0.0)
(2.286300308156842 0.0 0.0)
(2.286300308148736 0.0 0.0)
(2.286300308140650 0.0 0.0)
(2.286300308132585 0.0 0.0)
(2.286300308124540 0.0 0.0)
(2.286300308116517 0.0 0.0)
(2.286300308108514 0.0 0.0)
(2.286300308100535 0.0 0.0)
(2.286300308092577 0.0 0.0)
(2.286300308084642 0.0 0.0)
(2.286300308076731 0.0 0.0)
(2.286300308068842 0.0 0.0)
(2.286300308060978 0.0 0.0)
(2.286300308053137 0.0 0.0)
(2.286300308045321 0.0 0.0)
(2.286300308037531 0.0 0.0)
(2.286300308029765 0.0 0.0)
(2.286300308022026 0.0 0.0)
(2.286300308014312 0.0 0.0)
(2.286300308006626 0.0 0.0)
(2.286300307998966 0.0 0.0)
(2.286300307991333 0.0 0.0)
(2.286300307983728 0.0 0.0)
(2.286300307976151 0.0 0.0)
(2.286300307968602 0.0 0.0)
(2.286300307961082 0.0 0.0)
(2.286300307953591 0.0 0.0)
(2.286300307946130 0.0 0.0)
(2.286300307938699 0.0 0.0)
(2.286300307931298 0.0 0.0)
(2.286300307923927 0.0 0.0)
(2.286300307916588 0.0 0.0)
(2.286300307909281 0.0 0.0)
(2.286300307902005 0.0 0.0)
(2.286300307894761 0.0 0.0)
(2.286300307887550 0.0 0.0)
(2.286300307880372 0.0 0.0)
(2.286300307873227 0.0 0.0)
(2.286300307866116 0.0 0.0)
(2.286300307859039 0.0 0.0)
(2.286300307851997 0.0 0.0)
(2.286300307844989 0.0 0.0)
(2.286300307838017 0.0 0.0)
(2.286300307831080 0.0 0.0)
(2.286300307824179 0.0 0.0)
(2.286300307817315 0.0 0.0)
(2.286300307810488 0.0 0.0)
(2.286300307803697 0.0 0.0)
(2.286300307796944 0.0 0.0)
(2.286300307790230 0.0 0.0)
(2.286300307783553 0.0 0.0)
(2.286300307776915 0.0 0.0)
(2.286300307770316 0.0 0.0)
(2.286300307763756 0.0 0.0)
(2.286300307757237 0.0 0.0)
(2.286300307750758 0.0 0.0)
(2.286300307744319 0.0 0.0)
(2.286300307737921 0.0 0.0)
(2.286300307731564 0.0 0.0)
(2.286300307725250 0.0 0.0)
(2.286300307718977 0.0 0.0)
(2.286300307712747 0.0 0.0)
(2.286300307706560 0.0 0.0)
(2.286300307700416 0.0 0.0)
(2.286300307694315 0.0 0.0)
(2.286300307688259 0.0 0.0)
(2.286300307682247 0.0 0.0)
(2.286300307676279 0.0 0.0)
(2.286300307670357 0.0 0.0)
(2.286300307664480 0.0 0.0)
(2.286300307658649 0.0 0.0)
(2.286300307652865 0.0 0.0)
(2.286300307647127 0.0 0.0)
(2.286300307641437 0.0 0.0)
(2.286300307635793 0.0 0.0)
(2.286300307630198 0.0 0.0)
(2.286300307624650 0.0 0.0)
(2.286300307619152 0.0 0.0)
(2.286300307613702 0.0 0.0)
(2.286300307608301 0.0 0.0)
(2.286300307602950 0.0 0.0)
(2.286300307597650 0.0 0.0)
(2.286300307592400 0.0 0.0)
(2.286300307587200 0.0 0.0)
(2.286300307582052 0.0 0.0)
(2.286300307576956 0.0 0.0)
(2.286300307571911 0.0 0.0)
(2.286300307566919 0.0 0.0)
(2.286300307561980 0.0 0.0)
(2.286300307557093 0.0 0.0)
(2.286300307552261 0.0 0.0)
(2.286300307547482 0.0 0.0)
(2.286300307542757 0.0 0.0)
(2.286300307538087 0.0 0.0)
(2.286300307533472 0.0 0.0)
(2.286300307528913 0.0 0.0)
(2.286300307524409 0.0 0.0)
(2.286300307519962 0.0 0.0)
(2.286300307515571 0.0 0.0)
(2.286300307511237 0.0 0.0)
(2.286300307506960 0.0 0.0)
(2.286300307502741 0.0 0.0)
(2.286300307498580 0.0 0.0)